/*--------------------------------*- C++ -*----------------------------------*\
| =========                 |                                                 |
| \\      /  F ield         | OpenFOAM: The Open Source CFD Toolbox           |
|  \\    /   O peration     | Version:  4.1                                   |
|   \\  /    A nd           | Web:      www.OpenFOAM.org                      |
|    \\/     M anipulation  |                                                 |
\*---------------------------------------------------------------------------*/
FoamFile
{
    version     2.0;
    format      ascii;
    class       volScalarField;
    location    "0.0052";
    object      p;
}
// * * * * * * * * * * * * * * * * * * * * * * * * * * * * * * * * * * * * * //

dimensions      [1 -1 -2 0 0 0 0];

internalField   nonuniform List<scalar> 
441
(
100000
99999.9
99999.7
99999.9
99999.9
99999.5
99999.9
100000
100000
100001
100001
100001
100001
100001
100001
100001
100001
100001
100001
100001
100001
100000
100000
100000
100000
100000
100000
100000
100000
100000
100000
100000
100000
100000
100000
100000
100001
100000
100001
100000
100001
100000
100000
99999.9
100000
99999.9
100000
99999.9
100000
100000
100000
100001
100001
100001
100001
100001
100001
100001
100001
100001
100001
100001
100001
100000
100000
100000
100000
100000
100000
100000
100000
100000
100000
100000
100000
100000
100001
100001
100001
100001
100001
100001
100001
100000
100000
99999.7
99999.9
99999.8
99999.9
99999.9
100000
100000
100000
100000
100000
100001
100001
100001
100001
100001
100001
100001
100001
100001
100001
99999.1
99999.7
99999.5
99999.7
99999.7
99999.8
99999.9
100000
100000
100000
100000
100000
100001
100001
100001
100001
100001
100001
100001
100001
100000
99998.8
99999.1
99999.1
99999.3
99999.4
99999.5
99999.7
99999.9
100000
100000
100000
100001
100001
100001
100001
100001
100001
100001
100001
100002
100000
99998.9
99999
99998.9
99999.1
99999.2
99999.4
99999.5
99999.7
99999.9
100000
100000
100001
100001
100001
100001
100001
100001
100002
100001
100002
100001
99998.3
99998.3
99998.3
99998.5
99998.6
99998.9
99999.1
99999.4
99999.7
100000
100000
100001
100001
100001
100001
100002
100002
100002
100002
100002
100001
99998
99997.9
99998
99998.1
99998.3
99998.6
99998.8
99999.2
99999.5
99999.9
100000
100001
100001
100001
100002
100002
100002
100002
100002
100003
100001
99997
99996.9
99997
99997.3
99997.4
99997.9
99998.2
99998.7
99999.1
99999.7
100000
100001
100001
100002
100002
100003
100003
100003
100003
100004
100004
99996.5
99996.5
99996.5
99996.8
99997
99997.4
99997.7
99998.3
99998.8
99999.4
100000
100001
100001
100002
100003
100003
100003
100004
100004
100004
100003
99995
99995
99995
99995.5
99995.7
99996.4
99996.8
99997.6
99998.3
99999.1
100000
100001
100002
100002
100003
100004
100005
100005
100005
100006
100003
99994.5
99994.5
99994.4
99994.9
99995.1
99995.8
99996.2
99997
99997.8
99998.7
99999.7
100001
100002
100002
100004
100004
100005
100006
100006
100006
100005
99991.9
99992.2
99992
99993
99993.2
99994.3
99994.9
99996.1
99997
99998.2
99999.4
100001
100002
100003
100005
100006
100008
100008
100009
100008
100005
99991.6
99991.9
99991.5
99992.5
99992.4
99993.7
99994.2
99995.4
99996.4
99997.6
99999
100000
100002
100003
100005
100006
100008
100008
100009
100009
100003
99986.7
99988.1
99987.4
99989.7
99989.7
99991.8
99992.5
99994.2
99995.5
99997
99998.7
100000
100002
100003
100006
100007
100011
100011
100018
100012
100029
99986.9
99988.4
99987.1
99989.3
99989
99991
99991.7
99993.5
99994.8
99996.4
99998.1
99999.3
100002
100003
100006
100006
100011
100011
100017
100017
100027
99975.1
99982.3
99980.4
99985.7
99985.6
99989
99990
99992.5
99994
99995.8
99997.8
99999.2
100002
100003
100007
100007
100013
100013
100025
100026
100040
99975.6
99984
99981.1
99985.7
99985.4
99988.7
99989.6
99992.1
99993.6
99995.5
99997.4
99998.7
100001
100002
100006
100006
100012
100011
100023
100026
100045
99933.6
99976.7
99974.7
99985.2
99984.6
99988.8
99989.7
99992.3
99993.8
99995.6
99997.6
99998.9
100002
100002
100006
100007
100015
100016
100036
100044
100100
)
;

boundaryField
{
    movingWall
    {
        type            zeroGradient;
    }
    fixedWalls
    {
        type            zeroGradient;
    }
    frontAndBack
    {
        type            empty;
    }
}


// ************************************************************************* //
