/*--------------------------------*- C++ -*----------------------------------*\
| =========                 |                                                 |
| \\      /  F ield         | OpenFOAM: The Open Source CFD Toolbox           |
|  \\    /   O peration     | Version:  4.1                                   |
|   \\  /    A nd           | Web:      www.OpenFOAM.org                      |
|    \\/     M anipulation  |                                                 |
\*---------------------------------------------------------------------------*/
FoamFile
{
    version     2.0;
    format      ascii;
    class       volVectorField;
    location    "0.0808";
    object      U;
}
// * * * * * * * * * * * * * * * * * * * * * * * * * * * * * * * * * * * * * //

dimensions      [0 1 -1 0 0 0 0];

internalField   nonuniform List<vector> 
441
(
(0.00367942 -0.00478751 0)
(0.00960009 -0.00253956 0)
(-0.000634889 -2.20226e-165 0)
(0.00193443 -3.26848e-266 0)
(-0.00838468 -0.00773814 0)
(-0.00193443 -3.01814e-232 0)
(-1.13281e-202 -5.50474e-203 0)
(-1.37609e-203 -7.21773e-228 0)
(-1.69846e-212 -3.14753e-213 0)
(-0.00606391 9.00113e-266 0)
(-0.0742758 0.0242569 0)
(-0.0934063 0.0127062 0)
(-0.10534 0.0058344 0)
(-0.0928577 0.000419498 0)
(-0.0766188 -0.00160877 0)
(-0.0512779 -0.00297634 0)
(-0.0293892 -0.00214462 0)
(-0.00977591 -0.0016171 0)
(0.00224316 0.000686963 0)
(0.00421948 0.00144413 0)
(0.00450506 0.00294698 0)
(0.00376355 -0.00830559 0)
(-0.00105327 0.00678575 0)
(-0.0273351 0.00839268 0)
(-0.0588788 0.0106799 0)
(-0.105911 0.0107358 0)
(-0.150276 -0.00331152 0)
(-0.192043 -0.000170127 0)
(-0.232215 0.00163327 0)
(-0.267899 0.0130565 0)
(-0.303894 0.0661212 0)
(-0.328447 0.0609306 0)
(-0.322913 0.0187765 0)
(-0.308397 -0.00697513 0)
(-0.266858 -0.0299202 0)
(-0.217969 -0.0401487 0)
(-0.15614 -0.0455649 0)
(-0.100113 -0.0391791 0)
(-0.0500612 -0.0312917 0)
(-0.0160927 -0.0141642 0)
(-0.00150191 -0.00443285 0)
(0.00486221 0.00600294 0)
(0.00748681 -0.00800713 0)
(-0.00522111 0.0281717 0)
(-0.0538172 0.0564367 0)
(-0.119657 0.0760482 0)
(-0.200085 0.0824931 0)
(-0.283329 0.0820178 0)
(-0.37279 0.0790769 0)
(-0.445584 0.073387 0)
(-0.517122 0.0689317 0)
(-0.552214 0.0650997 0)
(-0.548374 0.0442063 0)
(-0.530665 -0.00609991 0)
(-0.494437 -0.0495348 0)
(-0.43026 -0.0898088 0)
(-0.3536 -0.111354 0)
(-0.2606 -0.12112 0)
(-0.17418 -0.107034 0)
(-0.094849 -0.0861598 0)
(-0.0387986 -0.046766 0)
(-0.00844758 -0.0199575 0)
(0.00628707 0.00670106 0)
(0.00630332 -0.010893 0)
(-0.0160319 0.069846 0)
(-0.0960022 0.122798 0)
(-0.190331 0.159369 0)
(-0.301479 0.174774 0)
(-0.413384 0.17215 0)
(-0.523663 0.163806 0)
(-0.619198 0.146875 0)
(-0.697868 0.122144 0)
(-0.744351 0.094665 0)
(-0.753856 0.0391122 0)
(-0.730728 -0.0362999 0)
(-0.681789 -0.107547 0)
(-0.59714 -0.171953 0)
(-0.495348 -0.209653 0)
(-0.371613 -0.226537 0)
(-0.254606 -0.204372 0)
(-0.144008 -0.168367 0)
(-0.0640817 -0.0996819 0)
(-0.0158865 -0.0509122 0)
(0.00794364 0.00422844 0)
(6.85354e-165 0.00157583 0)
(-0.024287 0.130021 0)
(-0.139395 0.229941 0)
(-0.257273 0.280063 0)
(-0.397504 0.304426 0)
(-0.533878 0.302335 0)
(-0.669656 0.283554 0)
(-0.784807 0.246473 0)
(-0.880518 0.193338 0)
(-0.937283 0.121801 0)
(-0.954663 0.0309959 0)
(-0.932833 -0.0779071 0)
(-0.876233 -0.182356 0)
(-0.775722 -0.276615 0)
(-0.650909 -0.335795 0)
(-0.494812 -0.36278 0)
(-0.344779 -0.33314 0)
(-0.196101 -0.277834 0)
(-0.0896581 -0.17316 0)
(-0.0182002 -0.0928741 0)
(0.0145533 -0.000452035 0)
(-5.5561e-266 0.00573805 0)
(-0.0887897 0.214008 0)
(-0.194764 0.353766 0)
(-0.3363 0.419332 0)
(-0.489816 0.451235 0)
(-0.647188 0.445379 0)
(-0.799269 0.415366 0)
(-0.933623 0.357994 0)
(-1.04461 0.275516 0)
(-1.11871 0.168016 0)
(-1.15334 0.0349634 0)
(-1.13986 -0.115773 0)
(-1.0842 -0.264413 0)
(-0.972683 -0.398937 0)
(-0.827804 -0.490124 0)
(-0.638099 -0.535199 0)
(-0.450959 -0.502031 0)
(-0.257603 -0.426687 0)
(-0.119131 -0.275578 0)
(-0.0203054 -0.158377 0)
(0.0161341 0.00192064 0)
(-0.0229522 0.093587 0)
(-0.123778 0.321195 0)
(-0.245861 0.477814 0)
(-0.401609 0.573252 0)
(-0.574095 0.614463 0)
(-0.749916 0.610286 0)
(-0.922314 0.569137 0)
(-1.07673 0.49085 0)
(-1.20875 0.378171 0)
(-1.30343 0.230273 0)
(-1.35809 0.0526278 0)
(-1.35945 -0.147376 0)
(-1.31147 -0.348528 0)
(-1.19533 -0.533985 0)
(-1.03483 -0.668921 0)
(-0.810455 -0.741565 0)
(-0.583548 -0.711355 0)
(-0.332206 -0.612171 0)
(-0.158983 -0.407175 0)
(-0.00725344 -0.230013 0)
(5.95665e-266 -0.00403352 0)
(-0.0169331 0.154928 0)
(-0.118528 0.438081 0)
(-0.268771 0.632137 0)
(-0.44502 0.748338 0)
(-0.637405 0.799747 0)
(-0.832403 0.793871 0)
(-1.02339 0.742471 0)
(-1.19896 0.644287 0)
(-1.35324 0.502638 0)
(-1.47311 0.316782 0)
(-1.55381 0.0914031 0)
(-1.5779 -0.163496 0)
(-1.54707 -0.428013 0)
(-1.43574 -0.677853 0)
(-1.2672 -0.874322 0)
(-1.0125 -0.990718 0)
(-0.743289 -0.978647 0)
(-0.428751 -0.857688 0)
(-0.206528 -0.595884 0)
(-0.00361911 -0.326952 0)
(2.58807e-24 -1.07751e-24 0)
(-0.015044 0.225401 0)
(-0.122154 0.571149 0)
(-0.289098 0.802652 0)
(-0.480246 0.939987 0)
(-0.689012 1.00048 0)
(-0.899405 0.994609 0)
(-1.1072 0.934734 0)
(-1.30195 0.819498 0)
(-1.47848 0.652046 0)
(-1.62457 0.430182 0)
(-1.73409 0.158 0)
(-1.78747 -0.154678 0)
(-1.78287 -0.489247 0)
(-1.68829 -0.815216 0)
(-1.52388 -1.08998 0)
(-1.2484 -1.26878 0)
(-0.941398 -1.29145 0)
(-0.558133 -1.15438 0)
(-0.277117 -0.824499 0)
(-0.0049578 -0.444542 0)
(1.05381e-76 -6.47017e-25 0)
(-0.0130765 0.292692 0)
(-0.119765 0.713847 0)
(-0.296096 0.990934 0)
(-0.495906 1.14881 0)
(-0.714533 1.21929 0)
(-0.934609 1.21197 0)
(-1.15285 1.14522 0)
(-1.3617 1.01511 0)
(-1.55581 0.825418 0)
(-1.72595 0.571649 0)
(-1.86445 0.254618 0)
(-1.95157 -0.115916 0)
(-1.98188 -0.526514 0)
(-1.91771 -0.939516 0)
(-1.77352 -1.31335 0)
(-1.4941 -1.57929 0)
(-1.15976 -1.6674 0)
(-0.709807 -1.53248 0)
(-0.361118 -1.14337 0)
(-0.00710105 -0.61957 0)
(2.93082e-164 -2.63453e-77 0)
(-0.0130931 0.354773 0)
(-0.120717 0.852401 0)
(-0.302301 1.17645 0)
(-0.505118 1.35611 0)
(-0.7257 1.43743 0)
(-0.94677 1.43085 0)
(-1.16543 1.36068 0)
(-1.37837 1.22094 0)
(-1.57984 1.01585 0)
(-1.7659 0.737949 0)
(-1.92726 0.384222 0)
(-2.048 -0.0376532 0)
(-2.11829 -0.521067 0)
(-2.09877 -1.02454 0)
(-1.99488 -1.51016 0)
(-1.73785 -1.88642 0)
(-1.40022 -2.07077 0)
(-0.901841 -1.96146 0)
(-0.485956 -1.51541 0)
(-0.0805075 -0.819027 0)
(1.78333e-265 0.0132745 0)
(-0.0136185 0.427393 0)
(-0.117535 1.00523 0)
(-0.296747 1.3768 0)
(-0.493281 1.57288 0)
(-0.70455 1.66207 0)
(-0.914513 1.65163 0)
(-1.11977 1.57745 0)
(-1.32253 1.42905 0)
(-1.51623 1.21311 0)
(-1.70416 0.918354 0)
(-1.87621 0.536812 0)
(-2.02328 0.0741155 0)
(-2.13293 -0.475115 0)
(-2.16774 -1.06514 0)
(-2.12372 -1.67305 0)
(-1.91947 -2.18057 0)
(-1.60824 -2.50218 0)
(-1.08105 -2.46124 0)
(-0.584719 -1.95881 0)
(-0.0758195 -1.12542 0)
(0.0530981 -0.0762374 0)
(-0.0168761 0.481541 0)
(-0.120969 1.13258 0)
(-0.299242 1.54928 0)
(-0.484989 1.7606 0)
(-0.675809 1.85685 0)
(-0.861045 1.84349 0)
(-1.03431 1.76775 0)
(-1.20787 1.61588 0)
(-1.37182 1.39725 0)
(-1.54134 1.09744 0)
(-1.70335 0.704125 0)
(-1.86253 0.219559 0)
(-2.00144 -0.373903 0)
(-2.09532 -1.0329 0)
(-2.12665 -1.75296 0)
(-2.00942 -2.40363 0)
(-1.77278 -2.90248 0)
(-1.24267 -2.99395 0)
(-0.714431 -2.51421 0)
(0.0426742 -1.46406 0)
(2.4523e-231 -0.0132745 0)
(-0.0213943 0.568203 0)
(-0.12278 1.29065 0)
(-0.292837 1.74472 0)
(-0.457402 1.95057 0)
(-0.613866 2.04133 0)
(-0.758566 2.01054 0)
(-0.881547 1.92632 0)
(-1.00578 1.76673 0)
(-1.11767 1.54742 0)
(-1.24478 1.24998 0)
(-1.37206 0.858032 0)
(-1.51947 0.372317 0)
(-1.66875 -0.242302 0)
(-1.81245 -0.940287 0)
(-1.92744 -1.75785 0)
(-1.93365 -2.53857 0)
(-1.83113 -3.26733 0)
(-1.40481 -3.5378 0)
(-0.892522 -3.23767 0)
(-0.00304986 -1.87762 0)
(5.81176e-202 4.58025e-184 0)
(-0.0373384 0.618805 0)
(-0.153555 1.39797 0)
(-0.32545 1.8802 0)
(-0.467342 2.07624 0)
(-0.572129 2.15658 0)
(-0.658259 2.10791 0)
(-0.704413 2.0149 0)
(-0.755274 1.85095 0)
(-0.786539 1.63693 0)
(-0.845321 1.35275 0)
(-0.907546 0.980331 0)
(-1.01788 0.518955 0)
(-1.14678 -0.0775448 0)
(-1.32699 -0.770036 0)
(-1.50972 -1.62358 0)
(-1.67432 -2.49649 0)
(-1.74188 -3.41471 0)
(-1.5322 -3.9411 0)
(-1.1094 -3.89239 0)
(-0.0114046 -2.38693 0)
(1.8321e-183 -1.25593e-184 0)
(-0.0559888 0.767275 0)
(-0.187773 1.58309 0)
(-0.350774 2.06807 0)
(-0.456241 2.19872 0)
(-0.492695 2.23954 0)
(-0.502453 2.14367 0)
(-0.454098 2.02776 0)
(-0.412154 1.84981 0)
(-0.342962 1.63946 0)
(-0.309778 1.37254 0)
(-0.281504 1.03071 0)
(-0.321685 0.614078 0)
(-0.396582 0.0652832 0)
(-0.569265 -0.573787 0)
(-0.792484 -1.41354 0)
(-1.09182 -2.30277 0)
(-1.3838 -3.41407 0)
(-1.50143 -4.17693 0)
(-1.39922 -4.77532 0)
(-0.465497 -3.03425 0)
(4.39884e-254 -4.58025e-184 0)
(-0.121803 0.848819 0)
(-0.321389 1.67969 0)
(-0.476274 2.1437 0)
(-0.533131 2.20856 0)
(-0.45176 2.20219 0)
(-0.350685 2.06446 0)
(-0.164092 1.92568 0)
(0.000292196 1.73894 0)
(0.200225 1.53627 0)
(0.346689 1.29388 0)
(0.48973 0.994625 0)
(0.536882 0.64015 0)
(0.54744 0.173843 0)
(0.397508 -0.364676 0)
(0.189312 -1.09299 0)
(-0.267644 -1.8941 0)
(-0.718802 -2.97897 0)
(-1.45937 -3.92451 0)
(-1.64852 -4.83763 0)
(-2.07249 -3.86246 0)
(-2.58815e-264 -0.215796 0)
(-0.178163 1.23215 0)
(-0.418357 1.94195 0)
(-0.507542 2.30226 0)
(-0.463731 2.17442 0)
(-0.22838 2.07093 0)
(0.0166017 1.85556 0)
(0.358059 1.68336 0)
(0.660637 1.48559 0)
(0.997169 1.29525 0)
(1.26492 1.08494 0)
(1.52584 0.840124 0)
(1.67509 0.561471 0)
(1.78337 0.201369 0)
(1.70877 -0.206143 0)
(1.55912 -0.759289 0)
(1.11499 -1.37838 0)
(0.579497 -2.25391 0)
(-0.350918 -3.20329 0)
(-1.0834 -4.25257 0)
(-1.84213 -4.53266 0)
(-0.863186 -2.31573 0)
(-0.4005 1.41114 0)
(-0.726429 1.98041 0)
(-0.521534 2.18331 0)
(-0.242913 1.9124 0)
(0.311281 1.72277 0)
(0.773299 1.46996 0)
(1.32686 1.28358 0)
(1.78273 1.09776 0)
(2.25691 0.933978 0)
(2.62963 0.768222 0)
(2.98653 0.586947 0)
(3.20835 0.391392 0)
(3.39184 0.14365 0)
(3.36396 -0.124811 0)
(3.28416 -0.495708 0)
(2.85581 -0.892657 0)
(2.38229 -1.51408 0)
(1.35971 -2.23222 0)
(0.455471 -3.35192 0)
(-0.707968 -4.00465 0)
(-0.701046 -2.96387 0)
(-0.257171 2.42102 0)
(-0.104002 2.05764 0)
(0.68266 1.86913 0)
(1.32885 1.33342 0)
(2.14414 1.07475 0)
(2.77077 0.832817 0)
(3.4248 0.679906 0)
(3.93823 0.551196 0)
(4.43904 0.448804 0)
(4.82169 0.355051 0)
(5.17665 0.259928 0)
(5.39633 0.16159 0)
(5.57874 0.0425173 0)
(5.56518 -0.0856241 0)
(5.51353 -0.261161 0)
(5.14795 -0.455048 0)
(4.75882 -0.78939 0)
(3.82788 -1.24428 0)
(2.86507 -2.25342 0)
(1.09172 -3.33012 0)
(-0.046155 -3.79898 0)
(1.66728 1.6696 0)
(2.70301 0.974644 0)
(4.54314 0.748334 0)
(5.38165 0.423728 0)
(6.24883 0.286299 0)
(6.75894 0.17794 0)
(7.23873 0.12119 0)
(7.56253 0.0808782 0)
(7.86099 0.0544896 0)
(8.06406 0.0339667 0)
(8.24668 0.0156567 0)
(8.33664 -0.00157733 0)
(8.40973 -0.0226706 0)
(8.35265 -0.0434787 0)
(8.29213 -0.0788162 0)
(8.00554 -0.111792 0)
(7.75006 -0.200945 0)
(6.99618 -0.293454 0)
(6.26263 -0.625302 0)
(4.04596 -0.997459 0)
(2.0054 -1.81809 0)
)
;

boundaryField
{
    movingWall
    {
        type            fixedValue;
        value           uniform (10 0 0);
    }
    fixedWalls
    {
        type            noSlip;
    }
    frontAndBack
    {
        type            empty;
    }
}


// ************************************************************************* //
