/*--------------------------------*- C++ -*----------------------------------*\
| =========                 |                                                 |
| \\      /  F ield         | OpenFOAM: The Open Source CFD Toolbox           |
|  \\    /   O peration     | Version:  4.1                                   |
|   \\  /    A nd           | Web:      www.OpenFOAM.org                      |
|    \\/     M anipulation  |                                                 |
\*---------------------------------------------------------------------------*/
FoamFile
{
    version     2.0;
    format      ascii;
    class       volVectorField;
    location    "0.052";
    object      U;
}
// * * * * * * * * * * * * * * * * * * * * * * * * * * * * * * * * * * * * * //

dimensions      [0 1 -1 0 0 0 0];

internalField   nonuniform List<vector> 
100
(
(-0.00213026 0.00197953 0)
(-0.00531024 0.00196474 0)
(-0.0108993 0.00188923 0)
(-0.0134159 0.000849856 0)
(-0.0157889 0.000414636 0)
(-0.015944 -0.000879152 0)
(-0.0141818 -0.00137012 0)
(-0.0117287 -0.00255392 0)
(-0.0059153 -0.00269454 0)
(-0.00249833 -0.00272294 0)
(-0.00307049 0.00548499 0)
(-0.00870601 0.00669027 0)
(-0.0172319 0.00647687 0)
(-0.0213327 0.00378089 0)
(-0.0248132 0.00248543 0)
(-0.0250408 -0.00102423 0)
(-0.0224161 -0.002484 0)
(-0.0184087 -0.00593553 0)
(-0.00959201 -0.00633746 0)
(-0.00352257 -0.0056635 0)
(-0.00360928 0.013853 0)
(-0.0100423 0.0159944 0)
(-0.0196507 0.0148491 0)
(-0.0242733 0.00805247 0)
(-0.0283096 0.0044517 0)
(-0.028652 -0.00382174 0)
(-0.0260228 -0.00782811 0)
(-0.0215854 -0.015969 0)
(-0.0116488 -0.0176812 0)
(-0.00453637 -0.0161754 0)
(-0.00562836 0.0189123 0)
(-0.0143223 0.02238 0)
(-0.026795 0.0208866 0)
(-0.0328225 0.0120931 0)
(-0.0377617 0.00739128 0)
(-0.0384161 -0.00349216 0)
(-0.0355822 -0.0087911 0)
(-0.0300248 -0.0202118 0)
(-0.017164 -0.0226193 0)
(-0.00706049 -0.021321 0)
(-0.00674705 0.0342242 0)
(-0.0168577 0.0370108 0)
(-0.0311428 0.0340313 0)
(-0.0380262 0.0183893 0)
(-0.0439566 0.0105379 0)
(-0.0449965 -0.00702857 0)
(-0.0429285 -0.0161143 0)
(-0.0370913 -0.035699 0)
(-0.022855 -0.0411092 0)
(-0.0101931 -0.041451 0)
(-0.0132009 0.0418221 0)
(-0.0290112 0.0460085 0)
(-0.047268 0.0422039 0)
(-0.0565393 0.0243122 0)
(-0.0630647 0.0152336 0)
(-0.0650172 -0.0047173 0)
(-0.0642324 -0.0152298 0)
(-0.0573743 -0.0398944 0)
(-0.0397443 -0.0477662 0)
(-0.0185538 -0.0531099 0)
(-0.0154121 0.0776705 0)
(-0.034345 0.0706981 0)
(-0.0542123 0.0630408 0)
(-0.0642399 0.0329945 0)
(-0.0715462 0.0199075 0)
(-0.0737575 -0.0077877 0)
(-0.076079 -0.0235895 0)
(-0.0705369 -0.0629221 0)
(-0.0558772 -0.0809019 0)
(-0.0278209 -0.102516 0)
(-0.0384622 0.0895195 0)
(-0.0693984 0.0831906 0)
(-0.0806696 0.0722359 0)
(-0.089011 0.0405984 0)
(-0.0908073 0.0262274 0)
(-0.0928026 -0.000542988 0)
(-0.101357 -0.0157348 0)
(-0.0965983 -0.0592654 0)
(-0.0909234 -0.0865659 0)
(-0.0449264 -0.134035 0)
(-0.0332481 0.188881 0)
(-0.0388828 0.111454 0)
(-0.0297585 0.0858366 0)
(-0.0211136 0.0408684 0)
(-0.0147328 0.0252601 0)
(-0.00508657 -0.000565406 0)
(-0.0132927 -0.019185 0)
(-0.00421943 -0.0786638 0)
(-0.0281023 -0.13385 0)
(-0.00877097 -0.246431 0)
(0.146924 0.155144 0)
(0.213758 0.0769474 0)
(0.326202 0.0556368 0)
(0.361707 0.0245513 0)
(0.388696 0.0129924 0)
(0.403069 -0.00239779 0)
(0.383487 -0.0114202 0)
(0.375522 -0.0422259 0)
(0.258606 -0.0716561 0)
(0.174265 -0.159552 0)
)
;

boundaryField
{
    movingWall
    {
        type            fixedValue;
        value           uniform (1 0 0);
    }
    fixedWalls
    {
        type            noSlip;
    }
    frontAndBack
    {
        type            empty;
    }
}


// ************************************************************************* //
