/*--------------------------------*- C++ -*----------------------------------*\
| =========                 |                                                 |
| \\      /  F ield         | OpenFOAM: The Open Source CFD Toolbox           |
|  \\    /   O peration     | Version:  4.1                                   |
|   \\  /    A nd           | Web:      www.OpenFOAM.org                      |
|    \\/     M anipulation  |                                                 |
\*---------------------------------------------------------------------------*/
FoamFile
{
    version     2.0;
    format      ascii;
    class       volVectorField;
    location    "0.5";
    object      U;
}
// * * * * * * * * * * * * * * * * * * * * * * * * * * * * * * * * * * * * * //

dimensions      [0 1 -1 0 0 0 0];

internalField   nonuniform List<vector> 
400
(
(-4.62784e-05 4.71396e-05 0)
(-0.000805869 0.00027158 0)
(-0.0022044 0.000377101 0)
(-0.00373244 0.000405362 0)
(-0.00524859 0.000383191 0)
(-0.00661658 0.000340941 0)
(-0.00779295 0.000285294 0)
(-0.00873324 0.000220945 0)
(-0.00941062 0.000148878 0)
(-0.00980039 7.06139e-05 0)
(-0.00988537 -1.24623e-05 0)
(-0.00965461 -9.83878e-05 0)
(-0.00910468 -0.000184888 0)
(-0.00824331 -0.000268668 0)
(-0.00708638 -0.00034607 0)
(-0.00567658 -0.00040876 0)
(-0.00406534 -0.000445782 0)
(-0.00241315 -0.000421655 0)
(-0.000889497 -0.000307362 0)
(-5.62427e-05 -6.05595e-05 0)
(-0.000273391 0.000802029 0)
(-0.00221398 0.00216578 0)
(-0.00524909 0.00280297 0)
(-0.00849026 0.00292744 0)
(-0.0116628 0.00275576 0)
(-0.0145171 0.00243397 0)
(-0.0169575 0.00201991 0)
(-0.0188951 0.00154136 0)
(-0.0202748 0.00101204 0)
(-0.0210494 0.000443989 0)
(-0.0211879 -0.000150645 0)
(-0.0206727 -0.000757736 0)
(-0.0195017 -0.00136064 0)
(-0.0176942 -0.00193838 0)
(-0.0152879 -0.00246361 0)
(-0.0123678 -0.00289029 0)
(-0.00904218 -0.00313839 0)
(-0.00559894 -0.003038 0)
(-0.00235772 -0.00235721 0)
(-0.000289452 -0.000878893 0)
(-0.00040634 0.0022487 0)
(-0.00306212 0.00524661 0)
(-0.00702399 0.00656127 0)
(-0.0111968 0.00676445 0)
(-0.0152493 0.00633968 0)
(-0.0188821 0.00558053 0)
(-0.0219778 0.00461432 0)
(-0.0244284 0.00350208 0)
(-0.0261668 0.00227793 0)
(-0.0271369 0.000970419 0)
(-0.0273018 -0.000391925 0)
(-0.0266408 -0.00177724 0)
(-0.0251516 -0.00314826 0)
(-0.0228574 -0.00445883 0)
(-0.0198031 -0.00564788 0)
(-0.0160918 -0.00661778 0)
(-0.0118549 -0.00719627 0)
(-0.00743834 -0.00704171 0)
(-0.00322833 -0.00563855 0)
(-0.00042214 -0.00240807 0)
(-0.000484679 0.00397936 0)
(-0.00357805 0.0088578 0)
(-0.00812579 0.0109097 0)
(-0.01288 0.01117 0)
(-0.0174756 0.0104363 0)
(-0.0215836 0.00916734 0)
(-0.0250785 0.00756656 0)
(-0.0278441 0.00573134 0)
(-0.0298092 0.00371804 0)
(-0.0309139 0.00157276 0)
(-0.0311176 -0.00065901 0)
(-0.0303954 -0.00292725 0)
(-0.0287404 -0.00517319 0)
(-0.0261718 -0.00732378 0)
(-0.0227322 -0.00928055 0)
(-0.0185291 -0.0108879 0)
(-0.0137035 -0.0118692 0)
(-0.00864245 -0.0116866 0)
(-0.00378162 -0.00948862 0)
(-0.000502117 -0.00423109 0)
(-0.000540458 0.0059482 0)
(-0.00399772 0.0129315 0)
(-0.00906038 0.0157848 0)
(-0.0143296 0.016087 0)
(-0.0194058 0.0149945 0)
(-0.0239323 0.013151 0)
(-0.0277796 0.0108443 0)
(-0.0308281 0.00821085 0)
(-0.0330065 0.00533036 0)
(-0.0342529 0.00226584 0)
(-0.0345232 -0.000921534 0)
(-0.0337858 -0.00416521 0)
(-0.0320239 -0.00738592 0)
(-0.0292454 -0.0104832 0)
(-0.0254815 -0.0133176 0)
(-0.0208364 -0.0156669 0)
(-0.0154552 -0.0171331 0)
(-0.00977063 -0.0169501 0)
(-0.00427859 -0.0138764 0)
(-0.000564658 -0.00632021 0)
(-0.000604679 0.00812729 0)
(-0.00447286 0.0174424 0)
(-0.0101231 0.0211678 0)
(-0.0159808 0.0214982 0)
(-0.0216036 0.0199964 0)
(-0.0266033 0.0175149 0)
(-0.0308486 0.014436 0)
(-0.0342197 0.0109383 0)
(-0.036648 0.00712466 0)
(-0.0380723 0.00307259 0)
(-0.0384445 -0.00114472 0)
(-0.0377236 -0.00544861 0)
(-0.0358776 -0.0097429 0)
(-0.0328942 -0.0139014 0)
(-0.0287831 -0.0177401 0)
(-0.0236355 -0.0209598 0)
(-0.0175966 -0.0230158 0)
(-0.0111541 -0.022871 0)
(-0.00488676 -0.0188279 0)
(-0.000642493 -0.0086712 0)
(-0.00068853 0.0105837 0)
(-0.00507969 0.0225146 0)
(-0.0114678 0.0271987 0)
(-0.0180569 0.0275353 0)
(-0.02435 0.025556 0)
(-0.0299232 0.0223535 0)
(-0.0346463 0.0184186 0)
(-0.0384047 0.0139763 0)
(-0.0411377 0.00915218 0)
(-0.0427884 0.00403413 0)
(-0.043306 -0.00129881 0)
(-0.0426377 -0.00676337 0)
(-0.0407292 -0.0122534 0)
(-0.0375372 -0.0176214 0)
(-0.033035 -0.0226361 0)
(-0.027285 -0.0269073 0)
(-0.0204218 -0.0297077 0)
(-0.0129981 -0.0296675 0)
(-0.00570504 -0.0245393 0)
(-0.000749047 -0.0113837 0)
(-0.000801599 0.013395 0)
(-0.0058718 0.0282943 0)
(-0.0131978 0.0340356 0)
(-0.0206995 0.0343378 0)
(-0.0278112 0.0317869 0)
(-0.0340714 0.0277548 0)
(-0.0393575 0.0228611 0)
(-0.0435699 0.0173812 0)
(-0.0466645 0.0114626 0)
(-0.0485956 0.00519682 0)
(-0.0493132 -0.00134087 0)
(-0.0487509 -0.00807486 0)
(-0.0468252 -0.0149012 0)
(-0.0434452 -0.0216614 0)
(-0.0385268 -0.0280771 0)
(-0.0320749 -0.0336524 0)
(-0.0241921 -0.0374266 0)
(-0.0154966 -0.0376101 0)
(-0.0068306 -0.0312634 0)
(-0.000899795 -0.0145847 0)
(-0.000955491 0.0166803 0)
(-0.00690837 0.0349906 0)
(-0.0154201 0.0418952 0)
(-0.0240466 0.0420882 0)
(-0.0321363 0.0388295 0)
(-0.0391946 0.0338211 0)
(-0.0451185 0.0278388 0)
(-0.0498401 0.0212127 0)
(-0.0533457 0.0141104 0)
(-0.0556129 0.00661652 0)
(-0.0565992 -0.00121166 0)
(-0.0562251 -0.00932512 0)
(-0.0543701 -0.0176427 0)
(-0.050876 -0.0260144 0)
(-0.0455692 -0.0341234 0)
(-0.0383499 -0.0413559 0)
(-0.0292449 -0.0464501 0)
(-0.0189173 -0.047072 0)
(-0.0084052 -0.0393671 0)
(-0.00111801 -0.0184691 0)
(-0.00116746 0.0205772 0)
(-0.00827727 0.0428371 0)
(-0.0182845 0.0510074 0)
(-0.0282806 0.0509613 0)
(-0.0375088 0.0468018 0)
(-0.0454586 0.0406248 0)
(-0.0520669 0.0333973 0)
(-0.0573255 0.0255075 0)
(-0.0612717 0.0171386 0)
(-0.0639254 0.00835401 0)
(-0.0652634 -0.000827486 0)
(-0.0651983 -0.0104108 0)
(-0.0635672 -0.0203696 0)
(-0.0601207 -0.0305985 0)
(-0.054554 -0.0407665 0)
(-0.0465857 -0.0501434 0)
(-0.0360866 -0.0570821 0)
(-0.0236922 -0.0585294 0)
(-0.010677 -0.049356 0)
(-0.00144872 -0.0233202 0)
(-0.00147559 0.0253267 0)
(-0.0101225 0.0521976 0)
(-0.0220099 0.061705 0)
(-0.0336498 0.0611877 0)
(-0.0441596 0.0558402 0)
(-0.0530545 0.0482302 0)
(-0.0603421 0.0395623 0)
(-0.0661174 0.0302813 0)
(-0.0704971 0.0205787 0)
(-0.073571 0.010475 0)
(-0.0753546 -7.64129e-05 0)
(-0.0757654 -0.0111722 0)
(-0.0746003 -0.0228886 0)
(-0.0714968 -0.0352244 0)
(-0.0659705 -0.0478908 0)
(-0.0574438 -0.0600757 0)
(-0.0454928 -0.0696589 0)
(-0.0305425 -0.0726329 0)
(-0.0141042 -0.0619984 0)
(-0.00198568 -0.0296159 0)
(-0.00193615 0.0311814 0)
(-0.012688 0.0634173 0)
(-0.0269506 0.0742629 0)
(-0.040537 0.0728991 0)
(-0.0524191 0.0659661 0)
(-0.0622294 0.0565883 0)
(-0.0700941 0.0462607 0)
(-0.0762774 0.0354739 0)
(-0.0810127 0.024414 0)
(-0.0844973 0.0130317 0)
(-0.0868135 0.001182 0)
(-0.0879083 -0.0113697 0)
(-0.0875569 -0.0248661 0)
(-0.0852755 -0.0395029 0)
(-0.080359 -0.0551412 0)
(-0.0717807 -0.0709957 0)
(-0.058605 -0.0844244 0)
(-0.040652 -0.090183 0)
(-0.019534 -0.0784194 0)
(-0.00291664 -0.038148 0)
(-0.00269006 0.0388087 0)
(-0.0163773 0.0772858 0)
(-0.0335919 0.0892809 0)
(-0.0493981 0.0863934 0)
(-0.0626126 0.0772565 0)
(-0.0731565 0.0656354 0)
(-0.0813379 0.0533708 0)
(-0.0876805 0.040967 0)
(-0.0925759 0.0285784 0)
(-0.0963739 0.0160495 0)
(-0.0992596 0.00309869 0)
(-0.10125 -0.0106976 0)
(-0.102144 -0.0258268 0)
(-0.101363 -0.0428104 0)
(-0.0979834 -0.0618451 0)
(-0.0903673 -0.0824165 0)
(-0.0767857 -0.101449 0)
(-0.0557185 -0.11222 0)
(-0.0284237 -0.100448 0)
(-0.00461937 -0.050443 0)
(-0.00393754 0.0486545 0)
(-0.0219151 0.0941335 0)
(-0.0427455 0.106799 0)
(-0.0609081 0.1014 0)
(-0.0750845 0.0892854 0)
(-0.0858346 0.0748993 0)
(-0.0937389 0.0604548 0)
(-0.0997057 0.0464068 0)
(-0.104323 0.0328368 0)
(-0.108134 0.0194449 0)
(-0.111461 0.0057819 0)
(-0.11444 -0.00880422 0)
(-0.11697 -0.0251174 0)
(-0.118461 -0.0441552 0)
(-0.117868 -0.0667233 0)
(-0.112856 -0.0930324 0)
(-0.100679 -0.119985 0)
(-0.0773575 -0.139437 0)
(-0.0428191 -0.130447 0)
(-0.00773299 -0.0689936 0)
(-0.00616963 0.0630944 0)
(-0.0301992 0.116018 0)
(-0.0548953 0.128004 0)
(-0.0749339 0.118192 0)
(-0.0889608 0.101803 0)
(-0.0987416 0.0838736 0)
(-0.105213 0.0669366 0)
(-0.109799 0.051257 0)
(-0.113288 0.0367547 0)
(-0.116434 0.0229309 0)
(-0.119702 0.00914147 0)
(-0.123382 -0.00551063 0)
(-0.127562 -0.0221861 0)
(-0.13178 -0.0424897 0)
(-0.135126 -0.0681584 0)
(-0.134714 -0.100811 0)
(-0.126978 -0.138262 0)
(-0.104306 -0.171841 0)
(-0.0640082 -0.171541 0)
(-0.0131706 -0.0984167 0)
(-0.0100494 0.0819337 0)
(-0.0429637 0.14147 0)
(-0.0704071 0.150555 0)
(-0.090004 0.134168 0)
(-0.100711 0.112395 0)
(-0.106669 0.0905336 0)
(-0.109222 0.0711834 0)
(-0.110403 0.0542318 0)
(-0.111105 0.0393266 0)
(-0.112207 0.0257388 0)
(-0.114238 0.0126375 0)
(-0.117599 -0.00107143 0)
(-0.122596 -0.0168497 0)
(-0.129021 -0.036905 0)
(-0.136495 -0.0640982 0)
(-0.142106 -0.102158 0)
(-0.142621 -0.151294 0)
(-0.126517 -0.204758 0)
(-0.0884043 -0.223086 0)
(-0.0213967 -0.143113 0)
(-0.0164093 0.114905 0)
(-0.058231 0.175459 0)
(-0.0819499 0.175555 0)
(-0.0940917 0.147832 0)
(-0.0948357 0.118664 0)
(-0.0918067 0.0924143 0)
(-0.0864119 0.070961 0)
(-0.0811002 0.0534093 0)
(-0.0765695 0.0388991 0)
(-0.0735851 0.0264072 0)
(-0.0725316 0.0149244 0)
(-0.0737482 0.00325017 0)
(-0.0776595 -0.0102239 0)
(-0.0843168 -0.0280777 0)
(-0.0942836 -0.0541139 0)
(-0.105469 -0.0943444 0)
(-0.117451 -0.152792 0)
(-0.116652 -0.228767 0)
(-0.0989783 -0.278396 0)
(-0.0303077 -0.207891 0)
(-0.0260725 0.147799 0)
(-0.0733534 0.200043 0)
(-0.0708967 0.184751 0)
(-0.0583803 0.145217 0)
(-0.0357311 0.110742 0)
(-0.014936 0.0829111 0)
(0.00423548 0.0617929 0)
(0.0198728 0.0456645 0)
(0.0322514 0.0331252 0)
(0.0412585 0.0229745 0)
(0.047025 0.0141461 0)
(0.0495437 0.00553151 0)
(0.0484657 -0.00431422 0)
(0.0435581 -0.0177336 0)
(0.0331276 -0.0385348 0)
(0.0177089 -0.0736042 0)
(-0.00771946 -0.130504 0)
(-0.0310628 -0.218153 0)
(-0.0600294 -0.302009 0)
(-0.0274479 -0.270838 0)
(-0.0172005 0.221629 0)
(-0.0179393 0.215621 0)
(0.0501812 0.168896 0)
(0.105889 0.11729 0)
(0.159679 0.0814778 0)
(0.20089 0.0569841 0)
(0.233796 0.0401708 0)
(0.258729 0.0285408 0)
(0.277552 0.0202092 0)
(0.291264 0.0139869 0)
(0.300697 0.00894226 0)
(0.306296 0.00428643 0)
(0.307951 -0.000968848 0)
(0.305308 -0.00827319 0)
(0.296075 -0.0204558 0)
(0.278953 -0.0427724 0)
(0.243805 -0.0844663 0)
(0.194829 -0.163096 0)
(0.0969491 -0.268943 0)
(0.0275967 -0.311726 0)
(0.213488 0.132766 0)
(0.303323 0.102867 0)
(0.456092 0.0665144 0)
(0.541198 0.0411748 0)
(0.604295 0.024834 0)
(0.645988 0.0153181 0)
(0.674867 0.00958549 0)
(0.694836 0.00615383 0)
(0.708826 0.00400889 0)
(0.71857 0.00260704 0)
(0.725149 0.00159045 0)
(0.729107 0.000725711 0)
(0.730495 -0.000261536 0)
(0.728769 -0.00165408 0)
(0.722171 -0.00423386 0)
(0.707481 -0.00899964 0)
(0.674943 -0.0187744 0)
(0.615337 -0.0384311 0)
(0.470446 -0.0738803 0)
(0.280737 -0.135787 0)
)
;

boundaryField
{
    movingWall
    {
        type            fixedValue;
        value           uniform (1 0 0);
    }
    fixedWalls
    {
        type            noSlip;
    }
    frontAndBack
    {
        type            empty;
    }
}


// ************************************************************************* //
