/*--------------------------------*- C++ -*----------------------------------*\
| =========                 |                                                 |
| \\      /  F ield         | OpenFOAM: The Open Source CFD Toolbox           |
|  \\    /   O peration     | Version:  4.1                                   |
|   \\  /    A nd           | Web:      www.OpenFOAM.org                      |
|    \\/     M anipulation  |                                                 |
\*---------------------------------------------------------------------------*/
FoamFile
{
    version     2.0;
    format      ascii;
    class       volVectorField;
    location    "0.186";
    object      U;
}
// * * * * * * * * * * * * * * * * * * * * * * * * * * * * * * * * * * * * * //

dimensions      [0 1 -1 0 0 0 0];

internalField   nonuniform List<vector> 
100
(
(-0.00132915 0.000696373 0)
(-0.00406783 0.00107197 0)
(-0.0118684 0.00146993 0)
(-0.0164959 0.000718683 0)
(-0.0215262 0.00048943 0)
(-0.0231222 -0.000893739 0)
(-0.0212247 -0.00159441 0)
(-0.0167975 -0.00312555 0)
(-0.00672308 -0.00300153 0)
(-0.00213075 -0.00226024 0)
(-0.00290502 0.00475041 0)
(-0.0110243 0.00939972 0)
(-0.0266221 0.0112541 0)
(-0.0367121 0.00872688 0)
(-0.0460698 0.00653736 0)
(-0.0489594 0.000307234 0)
(-0.0451767 -0.00439564 0)
(-0.0357401 -0.0116646 0)
(-0.0163524 -0.0115665 0)
(-0.00411456 -0.00657963 0)
(-0.00382474 0.0146282 0)
(-0.0151594 0.0245783 0)
(-0.0351163 0.0273891 0)
(-0.0485864 0.0197346 0)
(-0.0612439 0.0130392 0)
(-0.0661552 -0.00230332 0)
(-0.0631693 -0.0146162 0)
(-0.051767 -0.0324952 0)
(-0.0262698 -0.0347461 0)
(-0.00663392 -0.0229508 0)
(-0.0061029 0.0235408 0)
(-0.0211154 0.0403953 0)
(-0.0464393 0.0448475 0)
(-0.0639854 0.0345065 0)
(-0.0807522 0.0246105 0)
(-0.0895881 0.00202319 0)
(-0.0896007 -0.0181092 0)
(-0.0779761 -0.0486058 0)
(-0.0449743 -0.0561996 0)
(-0.012034 -0.0390286 0)
(-0.00720104 0.0420745 0)
(-0.0243248 0.0645861 0)
(-0.0533367 0.070761 0)
(-0.0744308 0.0533116 0)
(-0.0966974 0.039099 0)
(-0.111733 0.00558857 0)
(-0.11925 -0.0260475 0)
(-0.111112 -0.07833 0)
(-0.0729063 -0.101318 0)
(-0.0207959 -0.0808878 0)
(-0.0139634 0.0544484 0)
(-0.0369305 0.085815 0)
(-0.0712944 0.0950573 0)
(-0.0966484 0.0771462 0)
(-0.122659 0.0626429 0)
(-0.143431 0.0241758 0)
(-0.159176 -0.0174569 0)
(-0.155711 -0.0948382 0)
(-0.11505 -0.145435 0)
(-0.0367678 -0.131961 0)
(-0.0152901 0.0939043 0)
(-0.0372691 0.12117 0)
(-0.0706229 0.131701 0)
(-0.0932945 0.103242 0)
(-0.117801 0.0866991 0)
(-0.136128 0.0401659 0)
(-0.157833 -0.0133703 0)
(-0.159974 -0.124812 0)
(-0.134307 -0.221683 0)
(-0.0504354 -0.2363 0)
(-0.0397029 0.105239 0)
(-0.0688933 0.139612 0)
(-0.0810069 0.15139 0)
(-0.0852251 0.12311 0)
(-0.0848229 0.106992 0)
(-0.0808099 0.0635085 0)
(-0.0940775 0.00926001 0)
(-0.0953261 -0.117455 0)
(-0.105922 -0.250953 0)
(-0.0519758 -0.315219 0)
(-0.036292 0.205699 0)
(-0.024214 0.160753 0)
(0.0116894 0.151601 0)
(0.0565036 0.105024 0)
(0.093227 0.0845761 0)
(0.140364 0.0467657 0)
(0.150156 0.0034663 0)
(0.164758 -0.115201 0)
(0.086636 -0.26385 0)
(0.019843 -0.401557 0)
(0.146749 0.159994 0)
(0.23464 0.0887856 0)
(0.384232 0.0723644 0)
(0.463015 0.0407441 0)
(0.525749 0.026443 0)
(0.576088 0.00724059 0)
(0.577883 -0.00796934 0)
(0.574983 -0.0477148 0)
(0.414334 -0.0920469 0)
(0.221245 -0.195365 0)
)
;

boundaryField
{
    movingWall
    {
        type            fixedValue;
        value           uniform (1 0 0);
    }
    fixedWalls
    {
        type            noSlip;
    }
    frontAndBack
    {
        type            empty;
    }
}


// ************************************************************************* //
