/*--------------------------------*- C++ -*----------------------------------*\
| =========                 |                                                 |
| \\      /  F ield         | OpenFOAM: The Open Source CFD Toolbox           |
|  \\    /   O peration     | Version:  4.1                                   |
|   \\  /    A nd           | Web:      www.OpenFOAM.org                      |
|    \\/     M anipulation  |                                                 |
\*---------------------------------------------------------------------------*/
FoamFile
{
    version     2.0;
    format      ascii;
    class       volVectorField;
    location    "0.0855";
    object      U;
}
// * * * * * * * * * * * * * * * * * * * * * * * * * * * * * * * * * * * * * //

dimensions      [0 1 -1 0 0 0 0];

internalField   nonuniform List<vector> 
6400
(
(7.83901e-06 -7.80356e-06 0)
(2.95586e-05 -1.13316e-05 0)
(4.72982e-05 -7.8093e-06 0)
(5.5022e-05 1.32341e-06 0)
(4.85988e-05 1.40949e-05 0)
(2.56016e-05 2.8965e-05 0)
(-1.51628e-05 4.48128e-05 0)
(-7.399e-05 6.08437e-05 0)
(-0.000150541 7.65e-05 0)
(-0.000244034 9.13945e-05 0)
(-0.000353381 0.000105262 0)
(-0.000477287 0.000117926 0)
(-0.000614323 0.000129271 0)
(-0.00076298 0.000139231 0)
(-0.000921702 0.00014777 0)
(-0.00108892 0.00015488 0)
(-0.00126307 0.000160569 0)
(-0.0014426 0.00016486 0)
(-0.001626 0.000167784 0)
(-0.00181181 0.000169381 0)
(-0.00199859 0.000169698 0)
(-0.00218497 0.000168782 0)
(-0.00236964 0.000166686 0)
(-0.00255134 0.000163466 0)
(-0.00272887 0.000159178 0)
(-0.0029011 0.000153878 0)
(-0.00306695 0.000147625 0)
(-0.00322541 0.000140479 0)
(-0.00337555 0.000132498 0)
(-0.00351649 0.000123743 0)
(-0.00364741 0.000114274 0)
(-0.00376757 0.000104152 0)
(-0.00387628 9.34381e-05 0)
(-0.00397294 8.21942e-05 0)
(-0.004057 7.04828e-05 0)
(-0.00412799 5.8367e-05 0)
(-0.0041855 4.59109e-05 0)
(-0.0042292 3.31793e-05 0)
(-0.00425881 2.02382e-05 0)
(-0.00427416 7.15449e-06 0)
(-0.00427511 -6.00363e-06 0)
(-0.00426163 -1.91669e-05 0)
(-0.00423375 -3.22649e-05 0)
(-0.00419157 -4.5226e-05 0)
(-0.0041353 -5.79774e-05 0)
(-0.00406519 -7.04455e-05 0)
(-0.0039816 -8.25555e-05 0)
(-0.00388495 -9.4232e-05 0)
(-0.00377577 -0.000105399 0)
(-0.00365464 -0.000115981 0)
(-0.00352225 -0.0001259 0)
(-0.00337935 -0.000135081 0)
(-0.0032268 -0.000143449 0)
(-0.00306552 -0.000150929 0)
(-0.00289652 -0.000157449 0)
(-0.00272088 -0.000162937 0)
(-0.00253976 -0.000167325 0)
(-0.0023544 -0.000170549 0)
(-0.0021661 -0.000172546 0)
(-0.00197622 -0.000173261 0)
(-0.0017862 -0.000172641 0)
(-0.00159751 -0.000170643 0)
(-0.00141168 -0.000167228 0)
(-0.00123027 -0.000162369 0)
(-0.00105488 -0.000156049 0)
(-0.000887101 -0.000148265 0)
(-0.000728542 -0.00013903 0)
(-0.000580783 -0.000128379 0)
(-0.000445365 -0.000116373 0)
(-0.000323752 -0.00010311 0)
(-0.000217294 -8.87334e-05 0)
(-0.000127177 -7.34523e-05 0)
(-5.43452e-05 -5.75608e-05 0)
(5.92166e-07 -4.14729e-05 0)
(3.74955e-05 -2.57671e-05 0)
(5.6878e-05 -1.12493e-05 0)
(6.01544e-05 9.64977e-07 0)
(4.99539e-05 9.37048e-06 0)
(3.05479e-05 1.20906e-05 0)
(7.98783e-06 7.92166e-06 0)
(1.14963e-05 -2.94971e-05 0)
(4.43279e-05 -4.38433e-05 0)
(6.33243e-05 -2.59341e-05 0)
(5.45209e-05 1.41069e-05 0)
(8.107e-06 6.82392e-05 0)
(-8.18946e-05 0.000130474 0)
(-0.000218609 0.000196451 0)
(-0.000402994 0.000263044 0)
(-0.0006344 0.000328033 0)
(-0.000911 0.000389858 0)
(-0.00123012 0.000447439 0)
(-0.00158848 0.000500045 0)
(-0.0019824 0.000547199 0)
(-0.00240789 0.000588612 0)
(-0.00286084 0.000624132 0)
(-0.00333701 0.000653709 0)
(-0.00383215 0.000677369 0)
(-0.00434206 0.000695198 0)
(-0.00486257 0.00070732 0)
(-0.0053896 0.000713897 0)
(-0.0059192 0.000715109 0)
(-0.00644753 0.000711161 0)
(-0.00697093 0.000702266 0)
(-0.00748584 0.00068865 0)
(-0.0079889 0.000670547 0)
(-0.00847691 0.000648195 0)
(-0.00894684 0.000621838 0)
(-0.00939582 0.000591723 0)
(-0.0098212 0.000558098 0)
(-0.0102205 0.000521216 0)
(-0.0105913 0.00048133 0)
(-0.0109317 0.000438696 0)
(-0.0112396 0.000393571 0)
(-0.0115133 0.000346217 0)
(-0.0117512 0.000296897 0)
(-0.0119521 0.000245876 0)
(-0.0121148 0.000193426 0)
(-0.0122382 0.000139819 0)
(-0.0123218 8.53337e-05 0)
(-0.0123649 3.02524e-05 0)
(-0.0123672 -2.51379e-05 0)
(-0.0123286 -8.05454e-05 0)
(-0.0122492 -0.000135674 0)
(-0.0121293 -0.000190221 0)
(-0.0119695 -0.000243882 0)
(-0.0117706 -0.000296346 0)
(-0.0115335 -0.0003473 0)
(-0.0112595 -0.000396428 0)
(-0.0109501 -0.00044341 0)
(-0.0106069 -0.000487928 0)
(-0.0102319 -0.000529661 0)
(-0.00982732 -0.000568291 0)
(-0.00939545 -0.000603504 0)
(-0.00893893 -0.000634988 0)
(-0.00846063 -0.000662441 0)
(-0.00796358 -0.000685566 0)
(-0.00745107 -0.000704081 0)
(-0.00692653 -0.000717715 0)
(-0.00639363 -0.000726214 0)
(-0.00585617 -0.000729344 0)
(-0.00531814 -0.000726895 0)
(-0.00478363 -0.000718684 0)
(-0.00425687 -0.00070456 0)
(-0.00374216 -0.000684414 0)
(-0.00324385 -0.000658181 0)
(-0.00276631 -0.000625854 0)
(-0.00231389 -0.000587497 0)
(-0.00189083 -0.00054326 0)
(-0.00150122 -0.000493409 0)
(-0.00114892 -0.000438352 0)
(-0.0008374 -0.00037869 0)
(-0.000569671 -0.000315276 0)
(-0.000348041 -0.000249311 0)
(-0.000173902 -0.000182459 0)
(-4.74108e-05 -0.000117022 0)
(3.29182e-05 -5.61694e-05 0)
(7.07405e-05 -4.2363e-06 0)
(7.25087e-05 3.29263e-05 0)
(4.83641e-05 4.76153e-05 0)
(1.23502e-05 3.04121e-05 0)
(8.17517e-06 -4.74121e-05 0)
(2.72083e-05 -6.29017e-05 0)
(1.97333e-05 -1.79671e-05 0)
(-3.22651e-05 6.81937e-05 0)
(-0.000141902 0.000180814 0)
(-0.000317418 0.000308815 0)
(-0.000563285 0.000443997 0)
(-0.000880996 0.000580354 0)
(-0.00126976 0.000713533 0)
(-0.00172703 0.000840408 0)
(-0.00224899 0.000958769 0)
(-0.00283084 0.00106708 0)
(-0.00346711 0.00116432 0)
(-0.00415186 0.00124982 0)
(-0.00487882 0.00132324 0)
(-0.00564155 0.00138441 0)
(-0.00643354 0.00143334 0)
(-0.00724826 0.00147018 0)
(-0.00807925 0.00149515 0)
(-0.00892016 0.00150855 0)
(-0.00976481 0.00151074 0)
(-0.0106072 0.00150212 0)
(-0.0114415 0.00148314 0)
(-0.0122621 0.00145423 0)
(-0.0130637 0.0014159 0)
(-0.0138412 0.00136862 0)
(-0.0145899 0.0013129 0)
(-0.0153051 0.00124926 0)
(-0.0159827 0.00117822 0)
(-0.0166187 0.0011003 0)
(-0.0172094 0.00101605 0)
(-0.0177513 0.00092599 0)
(-0.0182416 0.000830676 0)
(-0.0186773 0.000730657 0)
(-0.019056 0.00062649 0)
(-0.0193757 0.000518739 0)
(-0.0196344 0.000407976 0)
(-0.0198306 0.00029478 0)
(-0.0199632 0.000179741 0)
(-0.0200314 6.34565e-05 0)
(-0.0200346 -5.34659e-05 0)
(-0.0199726 -0.000170409 0)
(-0.0198457 -0.000286746 0)
(-0.0196543 -0.000401839 0)
(-0.0193994 -0.000515044 0)
(-0.0190823 -0.000625708 0)
(-0.0187044 -0.00073317 0)
(-0.0182678 -0.000836763 0)
(-0.0177749 -0.00093582 0)
(-0.0172284 -0.00102967 0)
(-0.0166313 -0.00111764 0)
(-0.0159871 -0.00119907 0)
(-0.0152995 -0.0012733 0)
(-0.0145728 -0.00133968 0)
(-0.0138115 -0.00139758 0)
(-0.0130203 -0.0014464 0)
(-0.0122045 -0.00148553 0)
(-0.0113695 -0.00151444 0)
(-0.010521 -0.00153259 0)
(-0.00966504 -0.00153951 0)
(-0.00880784 -0.00153479 0)
(-0.00795583 -0.00151805 0)
(-0.00711557 -0.00148901 0)
(-0.00629377 -0.00144746 0)
(-0.00549717 -0.0013933 0)
(-0.00473249 -0.00132655 0)
(-0.00400641 -0.00124738 0)
(-0.00332539 -0.00115615 0)
(-0.00269563 -0.00105345 0)
(-0.0021229 -0.00094016 0)
(-0.00161237 -0.000817564 0)
(-0.00116843 -0.000687438 0)
(-0.000794371 -0.000552225 0)
(-0.000492117 -0.000415255 0)
(-0.000261757 -0.000281041 0)
(-0.000101048 -0.000155664 0)
(-4.7741e-06 -4.72833e-05 0)
(3.59754e-05 3.32594e-05 0)
(3.48021e-05 7.17396e-05 0)
(9.92185e-06 4.99877e-05 0)
(-6.87673e-07 -5.56461e-05 0)
(-1.17601e-05 -5.48132e-05 0)
(-6.45663e-05 3.37591e-05 0)
(-0.000178764 0.000182817 0)
(-0.000368974 0.000371165 0)
(-0.00064449 0.0005826 0)
(-0.00101041 0.00080487 0)
(-0.0014684 0.00102881 0)
(-0.00201743 0.00124762 0)
(-0.00265436 0.00145631 0)
(-0.00337442 0.00165127 0)
(-0.00417159 0.00182995 0)
(-0.00503896 0.00199058 0)
(-0.00596895 0.002132 0)
(-0.00695354 0.00225352 0)
(-0.00798442 0.00235481 0)
(-0.00905312 0.00243581 0)
(-0.0101512 0.00249669 0)
(-0.0112701 0.00253778 0)
(-0.0124016 0.00255952 0)
(-0.0135374 0.00256247 0)
(-0.0146697 0.00254728 0)
(-0.0157907 0.00251465 0)
(-0.0168931 0.00246531 0)
(-0.0179697 0.00240006 0)
(-0.0190138 0.00231972 0)
(-0.0200189 0.00222511 0)
(-0.0209791 0.00211711 0)
(-0.0218886 0.00199659 0)
(-0.0227421 0.00186442 0)
(-0.0235347 0.00172153 0)
(-0.0242619 0.0015688 0)
(-0.0249196 0.00140718 0)
(-0.025504 0.00123759 0)
(-0.0260119 0.00106098 0)
(-0.0264404 0.000878306 0)
(-0.0267871 0.00069054 0)
(-0.02705 0.00049867 0)
(-0.0272274 0.000303695 0)
(-0.0273184 0.000106631 0)
(-0.0273221 -9.14901e-05 0)
(-0.0272384 -0.00028962 0)
(-0.0270676 -0.000486695 0)
(-0.0268104 -0.000681637 0)
(-0.026468 -0.000873353 0)
(-0.0260421 -0.00106074 0)
(-0.0255348 -0.00124268 0)
(-0.0249489 -0.00141804 0)
(-0.0242874 -0.00158571 0)
(-0.023554 -0.00174456 0)
(-0.0227529 -0.00189345 0)
(-0.0218886 -0.00203127 0)
(-0.0209663 -0.00215692 0)
(-0.0199914 -0.00226932 0)
(-0.0189701 -0.00236741 0)
(-0.0179086 -0.00245019 0)
(-0.0168139 -0.00251667 0)
(-0.0156933 -0.00256594 0)
(-0.0145542 -0.00259716 0)
(-0.0134047 -0.00260954 0)
(-0.012253 -0.00260241 0)
(-0.0111075 -0.00257519 0)
(-0.00997691 -0.00252743 0)
(-0.00886996 -0.00245884 0)
(-0.00779547 -0.00236931 0)
(-0.0067622 -0.00225891 0)
(-0.00577878 -0.002128 0)
(-0.00485357 -0.00197724 0)
(-0.00399451 -0.00180769 0)
(-0.00320896 -0.00162088 0)
(-0.00250347 -0.00141897 0)
(-0.00188355 -0.0012049 0)
(-0.00135332 -0.000982665 0)
(-0.000915169 -0.000757562 0)
(-0.000569277 -0.000536636 0)
(-0.00031305 -0.000329185 0)
(-0.000140479 -0.000147415 0)
(-4.14304e-05 -7.22444e-06 0)
(-6.29494e-07 7.08635e-05 0)
(1.95326e-06 6.0791e-05 0)
(-1.319e-05 -5.01422e-05 0)
(-6.48453e-05 -9.85404e-06 0)
(-0.000175501 0.000142344 0)
(-0.000365041 0.000372676 0)
(-0.000648318 0.00065431 0)
(-0.00103469 0.000966282 0)
(-0.00152918 0.00129239 0)
(-0.00213321 0.00162026 0)
(-0.00284529 0.00194051 0)
(-0.00366161 0.00224612 0)
(-0.00457651 0.0025319 0)
(-0.00558292 0.00279408 0)
(-0.00667269 0.00303001 0)
(-0.00783685 0.0032379 0)
(-0.00906588 0.00341662 0)
(-0.0103499 0.00356558 0)
(-0.0116787 0.00368462 0)
(-0.0130422 0.00377387 0)
(-0.0144301 0.00383374 0)
(-0.0158324 0.00386484 0)
(-0.0172392 0.00386796 0)
(-0.0186408 0.00384398 0)
(-0.0200278 0.00379391 0)
(-0.0213913 0.00371883 0)
(-0.0227225 0.0036199 0)
(-0.0240131 0.00349831 0)
(-0.0252554 0.0033553 0)
(-0.0264418 0.00319215 0)
(-0.0275655 0.00301016 0)
(-0.0286198 0.00281067 0)
(-0.0295987 0.00259501 0)
(-0.0304967 0.00236457 0)
(-0.0313087 0.00212072 0)
(-0.0320302 0.00186488 0)
(-0.0326571 0.00159848 0)
(-0.0331859 0.00132296 0)
(-0.0336136 0.00103979 0)
(-0.0339377 0.000750452 0)
(-0.0341563 0.000456466 0)
(-0.0342681 0.000159363 0)
(-0.0342722 -0.000139299 0)
(-0.0341684 -0.000437939 0)
(-0.033957 -0.000734955 0)
(-0.033639 -0.00102872 0)
(-0.0332158 -0.00131759 0)
(-0.0326896 -0.00159991 0)
(-0.032063 -0.00187399 0)
(-0.0313394 -0.00213815 0)
(-0.0305225 -0.0023907 0)
(-0.0296169 -0.00262996 0)
(-0.0286277 -0.00285423 0)
(-0.0275605 -0.00306186 0)
(-0.0264216 -0.00325119 0)
(-0.0252177 -0.00342064 0)
(-0.0239563 -0.00356862 0)
(-0.0226451 -0.00369365 0)
(-0.0212927 -0.00379428 0)
(-0.0199077 -0.00386918 0)
(-0.0184994 -0.0039171 0)
(-0.0170776 -0.00393693 0)
(-0.0156522 -0.00392768 0)
(-0.0142335 -0.00388856 0)
(-0.0128318 -0.00381894 0)
(-0.0114579 -0.00371845 0)
(-0.0101222 -0.00358698 0)
(-0.00883541 -0.00342475 0)
(-0.00760772 -0.00323235 0)
(-0.00644914 -0.00301086 0)
(-0.00536911 -0.00276191 0)
(-0.00437634 -0.00248783 0)
(-0.00347858 -0.00219186 0)
(-0.00268234 -0.0018783 0)
(-0.00199253 -0.00155286 0)
(-0.00141211 -0.00122302 0)
(-0.000941588 -0.000898519 0)
(-0.000578486 -0.000591936 0)
(-0.000316721 -0.000319448 0)
(-0.000145922 -0.000101698 0)
(-5.04016e-05 3.5205e-05 0)
(-9.71348e-06 5.87299e-05 0)
(-2.78963e-05 -2.84386e-05 0)
(-0.000126502 7.81689e-05 0)
(-0.000302933 0.000316496 0)
(-0.000576505 0.000647823 0)
(-0.000961448 0.00104066 0)
(-0.00146644 0.00146986 0)
(-0.00209582 0.00191561 0)
(-0.00285033 0.00236242 0)
(-0.00372775 0.00279837 0)
(-0.00472346 0.00321432 0)
(-0.0058309 0.00360342 0)
(-0.00704198 0.00396059 0)
(-0.00834741 0.00428218 0)
(-0.00973701 0.00456564 0)
(-0.0111999 0.00480936 0)
(-0.0127249 0.00501239 0)
(-0.0143002 0.0051744 0)
(-0.0159144 0.00529549 0)
(-0.0175555 0.00537611 0)
(-0.0192121 0.00541704 0)
(-0.0208727 0.00541926 0)
(-0.0225261 0.00538395 0)
(-0.0241615 0.00531247 0)
(-0.0257684 0.00520626 0)
(-0.0273367 0.00506687 0)
(-0.0288568 0.00489596 0)
(-0.0303194 0.00469522 0)
(-0.031716 0.00446641 0)
(-0.0330384 0.00421133 0)
(-0.0342789 0.00393183 0)
(-0.0354306 0.00362978 0)
(-0.0364869 0.00330709 0)
(-0.0374419 0.0029657 0)
(-0.0382903 0.00260757 0)
(-0.0390273 0.00223469 0)
(-0.0396489 0.00184911 0)
(-0.0401514 0.00145285 0)
(-0.0405322 0.00104802 0)
(-0.0407889 0.000636724 0)
(-0.0409199 0.000221111 0)
(-0.0409243 -0.000196641 0)
(-0.0408018 -0.00061432 0)
(-0.0405529 -0.00102969 0)
(-0.0401786 -0.00144047 0)
(-0.0396808 -0.00184437 0)
(-0.0390618 -0.00223908 0)
(-0.0383248 -0.00262226 0)
(-0.0374737 -0.00299157 0)
(-0.036513 -0.00334465 0)
(-0.035448 -0.00367915 0)
(-0.0342846 -0.00399275 0)
(-0.0330294 -0.00428314 0)
(-0.0316896 -0.00454805 0)
(-0.0302734 -0.00478526 0)
(-0.0287891 -0.00499262 0)
(-0.0272459 -0.00516808 0)
(-0.0256536 -0.00530966 0)
(-0.0240224 -0.00541554 0)
(-0.0223631 -0.00548404 0)
(-0.0206869 -0.00551365 0)
(-0.0190052 -0.00550307 0)
(-0.01733 -0.00545124 0)
(-0.0156733 -0.00535738 0)
(-0.0140472 -0.00522105 0)
(-0.012464 -0.00504217 0)
(-0.0109357 -0.00482114 0)
(-0.0094741 -0.00455887 0)
(-0.0080906 -0.00425692 0)
(-0.00679595 -0.00391762 0)
(-0.0056001 -0.00354423 0)
(-0.00451189 -0.00314114 0)
(-0.0035388 -0.00271418 0)
(-0.00268661 -0.0022709 0)
(-0.00195897 -0.00182103 0)
(-0.00135704 -0.001377 0)
(-0.000878894 -0.000954579 0)
(-0.000518977 -0.000573642 0)
(-0.000267439 -0.000259043 0)
(-0.000109022 -4.15655e-05 0)
(-2.3656e-05 4.12736e-05 0)
(-4.38084e-05 1.08272e-05 0)
(-0.000192884 0.000212957 0)
(-0.00043973 0.000561721 0)
(-0.000802697 0.00101486 0)
(-0.00129486 0.00153722 0)
(-0.00192367 0.00210016 0)
(-0.00269231 0.00268065 0)
(-0.00360046 0.00326039 0)
(-0.00464491 0.00382498 0)
(-0.00582003 0.00436327 0)
(-0.00711827 0.00486671 0)
(-0.0085305 0.00532884 0)
(-0.0100463 0.00574496 0)
(-0.0116545 0.00611174 0)
(-0.0133428 0.00642695 0)
(-0.0150989 0.0066893 0)
(-0.0169097 0.00689822 0)
(-0.0187624 0.00705372 0)
(-0.0206437 0.00715631 0)
(-0.0225409 0.00720691 0)
(-0.024441 0.00720672 0)
(-0.0263315 0.00715724 0)
(-0.0282003 0.00706015 0)
(-0.0300356 0.00691732 0)
(-0.0318261 0.00673076 0)
(-0.0335608 0.0065026 0)
(-0.0352295 0.00623504 0)
(-0.0368224 0.0059304 0)
(-0.0383303 0.00559103 0)
(-0.0397446 0.00521936 0)
(-0.0410573 0.00481786 0)
(-0.042261 0.00438905 0)
(-0.0433492 0.00393549 0)
(-0.0443157 0.00345978 0)
(-0.0451552 0.00296457 0)
(-0.0458631 0.00245255 0)
(-0.0464353 0.00192643 0)
(-0.0468688 0.00138898 0)
(-0.0471609 0.00084301 0)
(-0.0473099 0.000291362 0)
(-0.0473146 -0.000263073 0)
(-0.0471749 -0.000817365 0)
(-0.0468913 -0.00136855 0)
(-0.0464648 -0.00191361 0)
(-0.0458976 -0.00244952 0)
(-0.0451925 -0.00297322 0)
(-0.044353 -0.00348162 0)
(-0.0433834 -0.00397162 0)
(-0.042289 -0.00444013 0)
(-0.0410757 -0.00488405 0)
(-0.0397502 -0.00530032 0)
(-0.0383198 -0.0056859 0)
(-0.036793 -0.00603783 0)
(-0.0351785 -0.00635319 0)
(-0.033486 -0.00662917 0)
(-0.0317259 -0.0068631 0)
(-0.0299091 -0.00705242 0)
(-0.0280471 -0.00719475 0)
(-0.0261519 -0.00728793 0)
(-0.0242362 -0.00733004 0)
(-0.0223128 -0.00731941 0)
(-0.0203949 -0.00725474 0)
(-0.0184962 -0.00713507 0)
(-0.0166301 -0.00695989 0)
(-0.0148103 -0.00672921 0)
(-0.0130501 -0.00644363 0)
(-0.0113627 -0.00610443 0)
(-0.00976085 -0.00571373 0)
(-0.00825644 -0.00527463 0)
(-0.00686058 -0.00479138 0)
(-0.0055832 -0.00426965 0)
(-0.00443279 -0.00371681 0)
(-0.00341605 -0.00314231 0)
(-0.0025376 -0.00255811 0)
(-0.00179947 -0.00197923 0)
(-0.00120071 -0.00142442 0)
(-0.000736765 -0.000916846 0)
(-0.000398835 -0.00048497 0)
(-0.000172636 -0.000163308 0)
(-3.88724e-05 6.98692e-06 0)
(-6.02608e-05 6.82657e-05 0)
(-0.000261404 0.00039643 0)
(-0.000581 0.000881134 0)
(-0.0010363 0.00147774 0)
(-0.00163892 0.00214836 0)
(-0.00239471 0.00286151 0)
(-0.00330537 0.00359144 0)
(-0.00436919 0.00431733 0)
(-0.00558168 0.00502256 0)
(-0.00693607 0.00569404 0)
(-0.00842368 0.00632156 0)
(-0.0100343 0.00689735 0)
(-0.0117564 0.00741562 0)
(-0.0135776 0.0078722 0)
(-0.0154846 0.00826427 0)
(-0.0174639 0.0085901 0)
(-0.0195012 0.00884888 0)
(-0.0215825 0.00904054 0)
(-0.0236933 0.00916562 0)
(-0.0258196 0.00922515 0)
(-0.0279472 0.00922058 0)
(-0.0300626 0.00915372 0)
(-0.0321523 0.00902664 0)
(-0.0342034 0.00884163 0)
(-0.0362034 0.0086012 0)
(-0.0381404 0.00830799 0)
(-0.0400029 0.00796479 0)
(-0.0417803 0.00757448 0)
(-0.0434624 0.00714004 0)
(-0.0450396 0.00666455 0)
(-0.0465033 0.00615114 0)
(-0.0478452 0.005603 0)
(-0.0490581 0.00502338 0)
(-0.0501352 0.00441561 0)
(-0.0510707 0.00378304 0)
(-0.0518594 0.00312909 0)
(-0.052497 0.00245723 0)
(-0.0529799 0.00177099 0)
(-0.0533052 0.00107394 0)
(-0.0534712 0.000369708 0)
(-0.0534765 -0.000338024 0)
(-0.0533209 -0.00104553 0)
(-0.053005 -0.00174902 0)
(-0.05253 -0.00244468 0)
(-0.0518983 -0.00312866 0)
(-0.0511128 -0.00379705 0)
(-0.0501777 -0.00444594 0)
(-0.0490976 -0.0050714 0)
(-0.0478784 -0.00566951 0)
(-0.0465264 -0.00623634 0)
(-0.0450491 -0.00676803 0)
(-0.0434548 -0.00726073 0)
(-0.0417525 -0.0077107 0)
(-0.039952 -0.00811427 0)
(-0.0380639 -0.00846792 0)
(-0.0360996 -0.00876825 0)
(-0.0340711 -0.00901209 0)
(-0.031991 -0.00919648 0)
(-0.0298727 -0.00931871 0)
(-0.0277298 -0.00937641 0)
(-0.0255766 -0.00936755 0)
(-0.0234275 -0.00929054 0)
(-0.0212973 -0.00914425 0)
(-0.0192009 -0.00892813 0)
(-0.0171532 -0.00864226 0)
(-0.0151687 -0.00828749 0)
(-0.013262 -0.0078655 0)
(-0.0114468 -0.00737903 0)
(-0.00973632 -0.00683196 0)
(-0.00814277 -0.0062296 0)
(-0.00667717 -0.00557893 0)
(-0.00534908 -0.00488886 0)
(-0.00416633 -0.00417071 0)
(-0.0031346 -0.00343857 0)
(-0.00225714 -0.00270991 0)
(-0.00153424 -0.00200612 0)
(-0.000962704 -0.00135329 0)
(-0.000535174 -0.000782817 0)
(-0.000238626 -0.000332101 0)
(-5.46886e-05 -4.48077e-05 0)
(-7.68239e-05 0.000143999 0)
(-0.000330375 0.000629289 0)
(-0.000723485 0.00127616 0)
(-0.00127233 0.0020385 0)
(-0.00198692 0.00287647 0)
(-0.00287132 0.00375638 0)
(-0.00392544 0.00465022 0)
(-0.00514597 0.00553503 0)
(-0.00652695 0.0063922 0)
(-0.00806025 0.00720686 0)
(-0.00973594 0.00796727 0)
(-0.0115426 0.00866438 0)
(-0.0134677 0.00929134 0)
(-0.0154975 0.00984317 0)
(-0.0176179 0.0103164 0)
(-0.019814 0.010709 0)
(-0.0220706 0.0110198 0)
(-0.0243723 0.0112486 0)
(-0.0267039 0.011396 0)
(-0.0290499 0.0114631 0)
(-0.0313953 0.0114518 0)
(-0.0337253 0.011364 0)
(-0.0360254 0.0112024 0)
(-0.0382817 0.0109695 0)
(-0.0404806 0.0106685 0)
(-0.0426093 0.0103026 0)
(-0.0446554 0.00987511 0)
(-0.0466073 0.00938961 0)
(-0.0484539 0.00884974 0)
(-0.050185 0.00825927 0)
(-0.0517911 0.00762203 0)
(-0.0532634 0.00694198 0)
(-0.0545938 0.00622311 0)
(-0.0557752 0.00546952 0)
(-0.0568011 0.00468535 0)
(-0.0576661 0.00387483 0)
(-0.0583652 0.00304224 0)
(-0.0588948 0.00219192 0)
(-0.0592517 0.00132831 0)
(-0.0594339 0.000455877 0)
(-0.0594401 -0.000420833 0)
(-0.0592699 -0.00129721 0)
(-0.058924 -0.0021686 0)
(-0.0584038 -0.00303029 0)
(-0.0577118 -0.0038775 0)
(-0.0568513 -0.00470546 0)
(-0.0558266 -0.00550933 0)
(-0.0546429 -0.00628429 0)
(-0.0533063 -0.00702549 0)
(-0.0518241 -0.00772814 0)
(-0.0502041 -0.00838746 0)
(-0.0484553 -0.00899876 0)
(-0.0465875 -0.00955744 0)
(-0.0446113 -0.010059 0)
(-0.0425382 -0.0104992 0)
(-0.0403804 -0.0108738 0)
(-0.038151 -0.011179 0)
(-0.0358637 -0.0114112 0)
(-0.0335326 -0.0115671 0)
(-0.0311728 -0.0116439 0)
(-0.0287994 -0.0116391 0)
(-0.0264283 -0.0115509 0)
(-0.0240752 -0.0113779 0)
(-0.0217562 -0.0111195 0)
(-0.0194874 -0.010776 0)
(-0.0172846 -0.0103484 0)
(-0.0151634 -0.00983879 0)
(-0.0131388 -0.00925056 0)
(-0.011225 -0.00858843 0)
(-0.00943554 -0.00785875 0)
(-0.00778247 -0.00706977 0)
(-0.00627658 -0.00623195 0)
(-0.00492689 -0.00535836 0)
(-0.0037404 -0.00446512 0)
(-0.00272174 -0.00357188 0)
(-0.00187272 -0.00270244 0)
(-0.00119176 -0.00188529 0)
(-0.000673153 -0.00115423 0)
(-0.000305276 -0.000548796 0)
(-7.06661e-05 -0.000114291 0)
(-9.32315e-05 0.000237844 0)
(-0.000398739 0.000911433 0)
(-0.000865099 0.00174704 0)
(-0.00150751 0.0026978 0)
(-0.00233438 0.00372252 0)
(-0.00334783 0.00478586 0)
(-0.00454588 0.00585804 0)
(-0.00592339 0.00691426 0)
(-0.00747277 0.00793421 0)
(-0.00918439 0.00890144 0)
(-0.011047 0.00980282 0)
(-0.0130478 0.0106281 0)
(-0.0151731 0.0113695 0)
(-0.0174081 0.0120212 0)
(-0.0197374 0.0125792 0)
(-0.0221452 0.0130409 0)
(-0.0246152 0.013405 0)
(-0.027131 0.0136712 0)
(-0.0296761 0.0138402 0)
(-0.0322342 0.0139133 0)
(-0.0347893 0.0138924 0)
(-0.0373255 0.0137799 0)
(-0.0398273 0.0135788 0)
(-0.04228 0.0132924 0)
(-0.044669 0.0129241 0)
(-0.0469805 0.0124779 0)
(-0.0492015 0.0119577 0)
(-0.0513194 0.0113677 0)
(-0.0533226 0.0107124 0)
(-0.0551999 0.00999618 0)
(-0.0569412 0.00922373 0)
(-0.0585371 0.00839975 0)
(-0.0599791 0.00752907 0)
(-0.0612594 0.00661659 0)
(-0.0623712 0.00566732 0)
(-0.0633084 0.00468634 0)
(-0.0640662 0.00367881 0)
(-0.0646402 0.00264997 0)
(-0.0650274 0.00160515 0)
(-0.0652253 0.000549746 0)
(-0.0652327 -0.00051077 0)
(-0.0650492 -0.00157085 0)
(-0.0646755 -0.00262489 0)
(-0.0641131 -0.0036672 0)
(-0.0633646 -0.00469207 0)
(-0.0624335 -0.00569372 0)
(-0.0613246 -0.00666636 0)
(-0.0600433 -0.00760419 0)
(-0.0585962 -0.0085014 0)
(-0.0569909 -0.00935223 0)
(-0.0552359 -0.010151 0)
(-0.0533408 -0.010892 0)
(-0.051316 -0.0115697 0)
(-0.0491728 -0.0121789 0)
(-0.0469236 -0.0127143 0)
(-0.0445813 -0.0131711 0)
(-0.04216 -0.0135446 0)
(-0.0396741 -0.0138305 0)
(-0.037139 -0.014025 0)
(-0.0345705 -0.0141248 0)
(-0.0319849 -0.0141269 0)
(-0.029399 -0.0140291 0)
(-0.0268297 -0.01383 0)
(-0.0242942 -0.0135288 0)
(-0.0218097 -0.0131259 0)
(-0.0193932 -0.0126226 0)
(-0.0170612 -0.0120215 0)
(-0.0148301 -0.0113264 0)
(-0.0127152 -0.0105429 0)
(-0.0107311 -0.00967846 0)
(-0.00889117 -0.0087425 0)
(-0.00720748 -0.00774696 0)
(-0.00569041 -0.00670656 0)
(-0.00434839 -0.00563926 0)
(-0.00318764 -0.00456668 0)
(-0.00221165 -0.00351468 0)
(-0.00142065 -0.00251378 0)
(-0.000810662 -0.00159967 0)
(-0.000371512 -0.000813436 0)
(-8.65333e-05 -0.000201332 0)
(-0.00010933 0.000349443 0)
(-0.000465884 0.00124226 0)
(-0.00100459 0.00229327 0)
(-0.00173982 0.00345534 0)
(-0.00267844 0.00468645 0)
(-0.00382059 0.00595007 0)
(-0.00516227 0.00721501 0)
(-0.00669645 0.00845503 0)
(-0.00841375 0.00964834 0)
(-0.0103029 0.0107771 0)
(-0.0123512 0.0118271 0)
(-0.0145445 0.0127868 0)
(-0.0168677 0.0136477 0)
(-0.0193051 0.0144032 0)
(-0.0218399 0.0150487 0)
(-0.0244553 0.0155814 0)
(-0.027134 0.0159996 0)
(-0.0298585 0.0163031 0)
(-0.0326114 0.0164924 0)
(-0.0353754 0.0165691 0)
(-0.0381335 0.0165354 0)
(-0.040869 0.0163941 0)
(-0.0435654 0.0161486 0)
(-0.0462072 0.0158027 0)
(-0.0487789 0.0153605 0)
(-0.051266 0.0148264 0)
(-0.0536547 0.0142051 0)
(-0.0559316 0.0135017 0)
(-0.0580844 0.0127212 0)
(-0.0601015 0.0118689 0)
(-0.061972 0.0109503 0)
(-0.0636861 0.00997088 0)
(-0.0652345 0.00893636 0)
(-0.0666093 0.00785254 0)
(-0.0678031 0.00672531 0)
(-0.0688095 0.00556067 0)
(-0.0696234 0.00436472 0)
(-0.0702402 0.00314365 0)
(-0.0706565 0.00190373 0)
(-0.0708699 0.000651346 0)
(-0.0708791 -0.000607045 0)
(-0.0706836 -0.0018649 0)
(-0.070284 -0.00311559 0)
(-0.0696821 -0.00435243 0)
(-0.0688805 -0.00556866 0)
(-0.067883 -0.00675749 0)
(-0.0666945 -0.00791209 0)
(-0.0653208 -0.00902562 0)
(-0.0637689 -0.0100912 0)
(-0.0620468 -0.0111022 0)
(-0.0601635 -0.0120517 0)
(-0.058129 -0.0129332 0)
(-0.0559544 -0.0137402 0)
(-0.0536517 -0.0144664 0)
(-0.0512338 -0.0151058 0)
(-0.0487146 -0.0156526 0)
(-0.0461086 -0.0161015 0)
(-0.0434315 -0.0164473 0)
(-0.0406993 -0.0166856 0)
(-0.0379288 -0.0168125 0)
(-0.0351372 -0.0168247 0)
(-0.0323424 -0.0167196 0)
(-0.0295622 -0.0164955 0)
(-0.026815 -0.0161516 0)
(-0.0241189 -0.0156884 0)
(-0.021492 -0.0151072 0)
(-0.0189521 -0.0144112 0)
(-0.0165165 -0.0136048 0)
(-0.014202 -0.0126944 0)
(-0.0120243 -0.0116883 0)
(-0.00999802 -0.0105972 0)
(-0.00813668 -0.0094343 0)
(-0.00645209 -0.00821593 0)
(-0.00495432 -0.00696166 0)
(-0.00365125 -0.00569488 0)
(-0.00254824 -0.00444319 0)
(-0.00164736 -0.00323881 0)
(-0.000946446 -0.00211888 0)
(-0.000436711 -0.00112556 0)
(-0.000102134 -0.000305622 0)
(-0.000125042 0.000478348 0)
(-0.000531493 0.00162088 0)
(-0.00114128 0.00291386 0)
(-0.00196813 0.00431025 0)
(-0.00301743 0.00576755 0)
(-0.00428738 0.00724844 0)
(-0.00577193 0.00872066 0)
(-0.00746205 0.0101568 0)
(-0.00934648 0.0115339 0)
(-0.0114123 0.0128331 0)
(-0.013645 0.0140388 0)
(-0.0160293 0.0151389 0)
(-0.0185487 0.0161239 0)
(-0.021186 0.0169866 0)
(-0.0239236 0.017722 0)
(-0.0267433 0.0183269 0)
(-0.0296269 0.0187995 0)
(-0.0325559 0.0191394 0)
(-0.035512 0.0193474 0)
(-0.0384768 0.0194251 0)
(-0.0414326 0.0193752 0)
(-0.0443617 0.0192007 0)
(-0.0472469 0.0189056 0)
(-0.0500717 0.0184942 0)
(-0.0528201 0.0179712 0)
(-0.0554768 0.0173418 0)
(-0.0580271 0.0166114 0)
(-0.0604572 0.0157856 0)
(-0.0627541 0.0148705 0)
(-0.0649056 0.0138721 0)
(-0.0669003 0.0127967 0)
(-0.0687279 0.0116507 0)
(-0.0703787 0.0104409 0)
(-0.0718442 0.00917377 0)
(-0.0731168 0.0078563 0)
(-0.0741899 0.00649541 0)
(-0.0750579 0.00509818 0)
(-0.0757161 0.0036718 0)
(-0.0761609 0.00222356 0)
(-0.0763899 0.000760855 0)
(-0.0764014 -0.000708812 0)
(-0.076195 -0.00217785 0)
(-0.0757715 -0.00363857 0)
(-0.0751325 -0.0050832 0)
(-0.0742809 -0.00650393 0)
(-0.0732207 -0.00789287 0)
(-0.0719567 -0.00924209 0)
(-0.0704953 -0.0105437 0)
(-0.0688437 -0.0117897 0)
(-0.0670102 -0.0129723 0)
(-0.0650042 -0.0140838 0)
(-0.0628363 -0.0151164 0)
(-0.060518 -0.0160626 0)
(-0.0580619 -0.0169152 0)
(-0.0554816 -0.0176673 0)
(-0.0527916 -0.0183121 0)
(-0.0500072 -0.0188434 0)
(-0.0471448 -0.0192555 0)
(-0.0442211 -0.0195432 0)
(-0.0412539 -0.0197019 0)
(-0.0382613 -0.0197278 0)
(-0.0352621 -0.019618 0)
(-0.0322751 -0.0193706 0)
(-0.0293196 -0.0189846 0)
(-0.0264149 -0.0184605 0)
(-0.0235802 -0.0178 0)
(-0.0208344 -0.0170064 0)
(-0.018196 -0.0160848 0)
(-0.0156829 -0.0150422 0)
(-0.0133122 -0.0138879 0)
(-0.0111 -0.0126337 0)
(-0.00906114 -0.0112941 0)
(-0.00720914 -0.00988663 0)
(-0.00555569 -0.00843244 0)
(-0.00411053 -0.00695643 0)
(-0.0028809 -0.00548771 0)
(-0.0018708 -0.00405984 0)
(-0.00107986 -0.00271112 0)
(-0.000500568 -0.00148444 0)
(-0.000117393 -0.000426762 0)
(-0.000140342 0.000624081 0)
(-0.000595456 0.00204628 0)
(-0.00127491 0.00360759 0)
(-0.00219193 0.00526127 0)
(-0.00335056 0.00696468 0)
(-0.00474708 0.00867995 0)
(-0.00637342 0.0103741 0)
(-0.00821849 0.0120188 0)
(-0.0102691 0.0135902 0)
(-0.0125105 0.0150683 0)
(-0.0149266 0.0164369 0)
(-0.0175006 0.017683 0)
(-0.0202144 0.0187963 0)
(-0.0230498 0.0197693 0)
(-0.0259879 0.0205965 0)
(-0.0290093 0.0212744 0)
(-0.0320948 0.0218012 0)
(-0.035225 0.0221764 0)
(-0.0383805 0.022401 0)
(-0.0415422 0.0224769 0)
(-0.0446913 0.0224069 0)
(-0.0478094 0.0221947 0)
(-0.0508786 0.0218446 0)
(-0.0538816 0.0213617 0)
(-0.0568017 0.0207511 0)
(-0.0596229 0.0200189 0)
(-0.06233 0.0191712 0)
(-0.0649085 0.0182144 0)
(-0.0673448 0.0171554 0)
(-0.0696263 0.016001 0)
(-0.071741 0.0147586 0)
(-0.0736783 0.0134354 0)
(-0.075428 0.0120391 0)
(-0.0769813 0.0105773 0)
(-0.0783303 0.00905777 0)
(-0.079468 0.00748857 0)
(-0.0803886 0.00587777 0)
(-0.0810872 0.00423359 0)
(-0.0815601 0.00256437 0)
(-0.0818047 0.000878592 0)
(-0.0818192 -0.00081517 0)
(-0.0816033 -0.00250822 0)
(-0.0811577 -0.00419178 0)
(-0.080484 -0.00585696 0)
(-0.0795852 -0.0074948 0)
(-0.0784654 -0.00909629 0)
(-0.0771298 -0.0106524 0)
(-0.0755847 -0.012154 0)
(-0.0738377 -0.0135921 0)
(-0.0718975 -0.0149577 0)
(-0.0697738 -0.016242 0)
(-0.0674775 -0.0174361 0)
(-0.0650208 -0.0185315 0)
(-0.0624166 -0.0195199 0)
(-0.0596791 -0.0203933 0)
(-0.0568234 -0.0211442 0)
(-0.0538656 -0.0217654 0)
(-0.0508225 -0.0222503 0)
(-0.047712 -0.0225931 0)
(-0.0445523 -0.0227885 0)
(-0.0413626 -0.0228322 0)
(-0.0381624 -0.0227208 0)
(-0.0349716 -0.0224522 0)
(-0.0318105 -0.0220252 0)
(-0.0286994 -0.0214402 0)
(-0.0256586 -0.0206992 0)
(-0.0227082 -0.0198057 0)
(-0.0198678 -0.0187653 0)
(-0.0171568 -0.0175858 0)
(-0.0145936 -0.0162771 0)
(-0.0121956 -0.0148521 0)
(-0.0099795 -0.0133263 0)
(-0.00796024 -0.0117186 0)
(-0.00615139 -0.0100514 0)
(-0.00456458 -0.00835095 0)
(-0.00320899 -0.00664758 0)
(-0.00209056 -0.00497603 0)
(-0.00121067 -0.00337543 0)
(-0.000562994 -0.00188921 0)
(-0.000132288 -0.000564326 0)
(-0.000155237 0.000786168 0)
(-0.000657799 0.0025174 0)
(-0.00140547 0.00437312 0)
(-0.00241115 0.00630702 0)
(-0.00367763 0.0082765 0)
(-0.00519937 0.0102434 0)
(-0.00696625 0.0121742 0)
(-0.00896514 0.0140399 0)
(-0.0111809 0.015816 0)
(-0.0135969 0.0174817 0)
(-0.0161953 0.0190201 0)
(-0.0189577 0.0204175 0)
(-0.0218648 0.0216633 0)
(-0.0248967 0.0227494 0)
(-0.0280334 0.02367 0)
(-0.0312545 0.0244215 0)
(-0.0345395 0.025002 0)
(-0.0378682 0.0254111 0)
(-0.0412201 0.0256499 0)
(-0.0445754 0.0257206 0)
(-0.0479143 0.0256266 0)
(-0.0512178 0.0253719 0)
(-0.0544671 0.0249614 0)
(-0.0576443 0.0244006 0)
(-0.0607321 0.0236957 0)
(-0.0637137 0.0228532 0)
(-0.0665734 0.0218802 0)
(-0.0692963 0.0207838 0)
(-0.0718683 0.0195717 0)
(-0.0742761 0.018252 0)
(-0.0765075 0.0168325 0)
(-0.0785513 0.0153218 0)
(-0.0803972 0.0137282 0)
(-0.0820359 0.0120606 0)
(-0.0834592 0.0103277 0)
(-0.0846599 0.00853862 0)
(-0.085632 0.00670242 0)
(-0.0863704 0.00482844 0)
(-0.0868712 0.00292611 0)
(-0.0871317 0.00100501 0)
(-0.0871501 -0.000925158 0)
(-0.0869259 -0.00285458 0)
(-0.0864599 -0.0047733 0)
(-0.0857536 -0.0066713 0)
(-0.0848103 -0.00853845 0)
(-0.0836339 -0.0103646 0)
(-0.0822299 -0.0121394 0)
(-0.0806049 -0.0138527 0)