/*--------------------------------*- C++ -*----------------------------------*\
| =========                 |                                                 |
| \\      /  F ield         | OpenFOAM: The Open Source CFD Toolbox           |
|  \\    /   O peration     | Version:  4.1                                   |
|   \\  /    A nd           | Web:      www.OpenFOAM.org                      |
|    \\/     M anipulation  |                                                 |
\*---------------------------------------------------------------------------*/
FoamFile
{
    version     2.0;
    format      ascii;
    class       volVectorField;
    location    "0.046";
    object      U;
}
// * * * * * * * * * * * * * * * * * * * * * * * * * * * * * * * * * * * * * //

dimensions      [0 1 -1 0 0 0 0];

internalField   nonuniform List<vector> 
100
(
(-0.00209778 0.00203282 0)
(-0.00522332 0.00198341 0)
(-0.0104267 0.00188041 0)
(-0.0127979 0.000875785 0)
(-0.0149494 0.000447383 0)
(-0.0150661 -0.000782987 0)
(-0.0133937 -0.00125365 0)
(-0.0110727 -0.00237212 0)
(-0.00570304 -0.00252773 0)
(-0.00239286 -0.00259976 0)
(-0.00295476 0.00530431 0)
(-0.0082566 0.00622474 0)
(-0.0159908 0.00594084 0)
(-0.0197241 0.003386 0)
(-0.0228056 0.00217731 0)
(-0.0229751 -0.00106621 0)
(-0.0205558 -0.00239156 0)
(-0.0168962 -0.0055354 0)
(-0.00894935 -0.00595886 0)
(-0.00331982 -0.00547113 0)
(-0.00347546 0.0133648 0)
(-0.00946557 0.0149123 0)
(-0.0181463 0.013696 0)
(-0.0223133 0.00733706 0)
(-0.0258533 0.00403557 0)
(-0.026103 -0.00355414 0)
(-0.0236555 -0.00715144 0)
(-0.0196292 -0.0145463 0)
(-0.0107162 -0.0161927 0)
(-0.00422648 -0.0151955 0)
(-0.00541964 0.0179965 0)
(-0.0135025 0.0205181 0)
(-0.024788 0.0189389 0)
(-0.0301949 0.0107257 0)
(-0.0344975 0.0064616 0)
(-0.0349782 -0.00346184 0)
(-0.0323008 -0.0081391 0)
(-0.0272455 -0.0183897 0)
(-0.0156861 -0.0206216 0)
(-0.006566 -0.0199079 0)
(-0.00654722 0.0327561 0)
(-0.0159206 0.0341808 0)
(-0.0288416 0.0311055 0)
(-0.0349696 0.0164628 0)
(-0.0400784 0.00933622 0)
(-0.0408161 -0.00673464 0)
(-0.0387015 -0.0147555 0)
(-0.0333337 -0.0324265 0)
(-0.0205259 -0.037302 0)
(-0.00933784 -0.0384655 0)
(-0.0127908 0.0397267 0)
(-0.0274553 0.0419979 0)
(-0.0439199 0.0380925 0)
(-0.0521296 0.0213302 0)
(-0.0576195 0.0131305 0)
(-0.0590474 -0.00506667 0)
(-0.05798 -0.0142103 0)
(-0.0515429 -0.0361994 0)
(-0.0356221 -0.0429195 0)
(-0.0170621 -0.0485454 0)
(-0.0150986 0.0743248 0)
(-0.0327046 0.0650208 0)
(-0.0505754 0.0573197 0)
(-0.0594163 0.0290447 0)
(-0.0654874 0.0171886 0)
(-0.0670315 -0.0082309 0)
(-0.0684925 -0.0220516 0)
(-0.0629656 -0.0574418 0)
(-0.049479 -0.0726839 0)
(-0.0254055 -0.0938226 0)
(-0.0374348 0.0854093 0)
(-0.0665235 0.0757894 0)
(-0.0763008 0.0648769 0)
(-0.0839249 0.0351428 0)
(-0.0849413 0.0221509 0)
(-0.0865424 -0.00245853 0)
(-0.0939501 -0.015644 0)
(-0.0892499 -0.0544272 0)
(-0.0841011 -0.0766754 0)
(-0.0430759 -0.120671 0)
(-0.032307 0.181812 0)
(-0.03952 0.102565 0)
(-0.031891 0.0779512 0)
(-0.0254938 0.0355117 0)
(-0.0200056 0.0214139 0)
(-0.0122167 -0.00244838 0)
(-0.0199972 -0.0187066 0)
(-0.0115606 -0.0725128 0)
(-0.0317905 -0.120029 0)
(-0.0111185 -0.228809 0)
(0.144472 0.150576 0)
(0.204874 0.0724911 0)
(0.310829 0.0518219 0)
(0.341177 0.0220772 0)
(0.365515 0.0114899 0)
(0.377199 -0.00302518 0)
(0.357697 -0.0113761 0)
(0.350147 -0.0407538 0)
(0.24015 -0.0673413 0)
(0.167228 -0.152727 0)
)
;

boundaryField
{
    movingWall
    {
        type            fixedValue;
        value           uniform (1 0 0);
    }
    fixedWalls
    {
        type            noSlip;
    }
    frontAndBack
    {
        type            empty;
    }
}


// ************************************************************************* //
