/*--------------------------------*- C++ -*----------------------------------*\
| =========                 |                                                 |
| \\      /  F ield         | OpenFOAM: The Open Source CFD Toolbox           |
|  \\    /   O peration     | Version:  4.1                                   |
|   \\  /    A nd           | Web:      www.OpenFOAM.org                      |
|    \\/     M anipulation  |                                                 |
\*---------------------------------------------------------------------------*/
FoamFile
{
    version     2.0;
    format      ascii;
    class       volVectorField;
    location    "0.081";
    object      U;
}
// * * * * * * * * * * * * * * * * * * * * * * * * * * * * * * * * * * * * * //

dimensions      [0 1 -1 0 0 0 0];

internalField   nonuniform List<vector> 
6400
(
(7.79039e-06 -7.75485e-06 0)
(2.93657e-05 -1.12493e-05 0)
(4.69683e-05 -7.73161e-06 0)
(5.45983e-05 1.36283e-06 0)
(4.81503e-05 1.40728e-05 0)
(2.52141e-05 2.88667e-05 0)
(-1.53939e-05 4.46303e-05 0)
(-7.39656e-05 6.05739e-05 0)
(-0.000150162 7.61434e-05 0)
(-0.000243204 9.09539e-05 0)
(-0.000352007 0.000104742 0)
(-0.000475285 0.000117332 0)
(-0.000611615 0.000128611 0)
(-0.000759495 0.000138511 0)
(-0.00091738 0.000146999 0)
(-0.00108371 0.000154065 0)
(-0.00125692 0.000159718 0)
(-0.00143548 0.00016398 0)
(-0.00161789 0.000166884 0)
(-0.00180268 0.000168469 0)
(-0.00198843 0.000168779 0)
(-0.00217379 0.000167865 0)
(-0.00235744 0.000165779 0)
(-0.00253813 0.000162574 0)
(-0.00271468 0.000158308 0)
(-0.00288595 0.000153036 0)
(-0.00305087 0.000146817 0)
(-0.00320846 0.00013971 0)
(-0.00335776 0.000131774 0)
(-0.00349792 0.000123069 0)
(-0.00362811 0.000113654 0)
(-0.00374761 0.00010359 0)
(-0.00385573 9.29381e-05 0)
(-0.00395186 8.17593e-05 0)
(-0.00403548 7.01159e-05 0)
(-0.0041061 5.80706e-05 0)
(-0.00416331 4.56869e-05 0)
(-0.0042068 3.30294e-05 0)
(-0.00423628 2.01633e-05 0)
(-0.00425158 7.15534e-06 0)
(-0.00425257 -5.92696e-06 0)
(-0.00423922 -1.90148e-05 0)
(-0.00421154 -3.20382e-05 0)
(-0.00416966 -4.4926e-05 0)
(-0.00411375 -5.7606e-05 0)
(-0.00404409 -7.0005e-05 0)
(-0.00396102 -8.20488e-05 0)
(-0.00386497 -9.36625e-05 0)
(-0.00375645 -0.00010477 0)
(-0.00363605 -0.000115297 0)
(-0.00350445 -0.000125166 0)
(-0.00336239 -0.000134302 0)
(-0.00321073 -0.000142631 0)
(-0.00305038 -0.000150077 0)
(-0.00288233 -0.000156569 0)
(-0.00270768 -0.000162036 0)
(-0.00252757 -0.00016641 0)
(-0.00234323 -0.000169626 0)
(-0.00215595 -0.000171623 0)
(-0.0019671 -0.000172345 0)
(-0.00177809 -0.00017174 0)
(-0.00159039 -0.000169764 0)
(-0.00140553 -0.000166379 0)
(-0.00122505 -0.000161557 0)
(-0.00105053 -0.000155282 0)
(-0.000883584 -0.00014755 0)
(-0.000725792 -0.000138373 0)
(-0.000578734 -0.000127787 0)
(-0.000443941 -0.000115851 0)
(-0.000322872 -0.000102663 0)
(-0.000216873 -8.83658e-05 0)
(-0.000127125 -7.31661e-05 0)
(-5.45687e-05 -5.73567e-05 0)
(1.851e-07 -4.13488e-05 0)
(3.69947e-05 -2.57176e-05 0)
(5.63669e-05 -1.12646e-05 0)
(5.9705e-05 9.00612e-07 0)
(4.96208e-05 9.28032e-06 0)
(3.03601e-05 1.20061e-05 0)
(7.94181e-06 7.87578e-06 0)
(1.14142e-05 -2.93039e-05 0)
(4.39939e-05 -4.35087e-05 0)
(6.27822e-05 -2.56412e-05 0)
(5.38975e-05 1.42243e-05 0)
(7.59042e-06 6.80902e-05 0)
(-8.20758e-05 0.000130002 0)
(-0.000218203 0.000195625 0)
(-0.000401736 0.000261852 0)
(-0.000632025 0.000326477 0)
(-0.000907251 0.00038795 0)
(-0.00122475 0.000445199 0)
(-0.00158126 0.000497497 0)
(-0.00197311 0.000544372 0)
(-0.00239635 0.000585536 0)
(-0.00284687 0.000620838 0)
(-0.00332047 0.000650231 0)
(-0.00381293 0.00067374 0)
(-0.00432005 0.00069145 0)
(-0.0048377 0.000703487 0)
(-0.00536182 0.00071001 0)
(-0.00588848 0.000711201 0)
(-0.00641388 0.000707261 0)
(-0.00693436 0.000698404 0)
(-0.00744639 0.000684854 0)
(-0.00794664 0.000666845 0)
(-0.00843191 0.000644614 0)
(-0.0088992 0.000618402 0)
(-0.00934567 0.000588455 0)
(-0.00976866 0.00055502 0)
(-0.0101657 0.000518349 0)
(-0.0105345 0.000478693 0)
(-0.010873 0.000436306 0)
(-0.0111792 0.000391444 0)
(-0.0114514 0.000344367 0)
(-0.0116881 0.000295336 0)
(-0.0118879 0.000244615 0)
(-0.0120497 0.000192472 0)
(-0.0121726 0.00013918 0)
(-0.0122557 8.50141e-05 0)
(-0.0122987 3.02544e-05 0)
(-0.0123011 -2.48138e-05 0)
(-0.0122629 -7.99008e-05 0)
(-0.0121841 -0.000134712 0)
(-0.012065 -0.000188948 0)
(-0.0119063 -0.000242306 0)
(-0.0117086 -0.000294477 0)
(-0.0114731 -0.00034515 0)
(-0.0112008 -0.000394011 0)
(-0.0108933 -0.000440742 0)
(-0.0105522 -0.000485026 0)
(-0.0101794 -0.000526546 0)
(-0.00977721 -0.000564985 0)
(-0.00934786 -0.000600029 0)
(-0.008894 -0.000631369 0)
(-0.00841844 -0.000658704 0)
(-0.00792422 -0.00068174 0)
(-0.00741458 -0.000700193 0)
(-0.00689297 -0.000713795 0)
(-0.006363 -0.000722293 0)
(-0.00582847 -0.000725453 0)
(-0.00529332 -0.000723065 0)
(-0.00476166 -0.000714946 0)
(-0.00423765 -0.000700948 0)
(-0.0037256 -0.000680957 0)
(-0.00322983 -0.00065491 0)
(-0.00275469 -0.0006228 0)
(-0.00230449 -0.000584687 0)
(-0.00188348 -0.000540721 0)
(-0.00149571 -0.000491165 0)
(-0.00114502 -0.000436423 0)
(-0.000834891 -0.000377092 0)
(-0.000568306 -0.00031402 0)
(-0.000347572 -0.000248398 0)
(-0.000174081 -0.000181882 0)
(-4.79989e-05 -0.000116761 0)
(3.21442e-05 -5.61844e-05 0)
(6.9975e-05 -4.46599e-06 0)
(7.19036e-05 3.25726e-05 0)
(4.80113e-05 4.72636e-05 0)
(1.22653e-05 3.02247e-05 0)
(8.09792e-06 -4.70817e-05 0)
(2.69164e-05 -6.23585e-05 0)
(1.93307e-05 -1.75627e-05 0)
(-3.25667e-05 6.8207e-05 0)
(-0.00014181 0.000180265 0)
(-0.000316582 0.000307595 0)
(-0.000561323 0.000442046 0)
(-0.00087751 0.000577649 0)
(-0.00126434 0.000710078 0)
(-0.0017193 0.000836229 0)
(-0.00223856 0.000953904 0)
(-0.00281737 0.00106158 0)
(-0.00345027 0.00115824 0)
(-0.00413135 0.00124323 0)
(-0.00485439 0.00131619 0)
(-0.00561298 0.00137698 0)
(-0.00640063 0.0014256 0)
(-0.00721087 0.00146219 0)
(-0.00803726 0.00148698 0)
(-0.00887351 0.00150027 0)
(-0.00971344 0.00150242 0)
(-0.0105511 0.00149383 0)
(-0.0113807 0.00147492 0)
(-0.0121967 0.00144616 0)
(-0.0129938 0.00140803 0)
(-0.013767 0.001361 0)
(-0.0145114 0.0013056 0)
(-0.0152226 0.00124232 0)
(-0.0158964 0.00117168 0)
(-0.0165288 0.00109421 0)
(-0.0171162 0.00101045 0)
(-0.0176551 0.000920914 0)
(-0.0181427 0.00082616 0)
(-0.018576 0.00072673 0)
(-0.0189527 0.000623178 0)
(-0.0192706 0.000516064 0)
(-0.019528 0.000405955 0)
(-0.0197233 0.000293428 0)
(-0.0198553 0.000179067 0)
(-0.0199233 6.34658e-05 0)
(-0.0199267 -5.27725e-05 0)
(-0.0198653 -0.000169035 0)
(-0.0197393 -0.000284699 0)
(-0.0195493 -0.000399132 0)
(-0.0192961 -0.000511694 0)
(-0.018981 -0.000621735 0)
(-0.0186055 -0.0007286 0)
(-0.0181717 -0.000831628 0)
(-0.0176818 -0.000930152 0)
(-0.0171386 -0.00102351 0)
(-0.0165451 -0.00111103 0)
(-0.0159047 -0.00119205 0)
(-0.0152212 -0.00126592 0)
(-0.0144988 -0.00133199 0)
(-0.0137418 -0.00138965 0)
(-0.0129552 -0.00143827 0)
(-0.012144 -0.00147727 0)
(-0.0113136 -0.00150611 0)
(-0.0104698 -0.00152425 0)
(-0.00961855 -0.00153124 0)
(-0.00876599 -0.00152664 0)
(-0.00791853 -0.00151009 0)
(-0.00708271 -0.00148131 0)
(-0.00626519 -0.00144008 0)
(-0.00547268 -0.00138631 0)
(-0.00471187 -0.00132001 0)
(-0.0039894 -0.00124135 0)
(-0.00331172 -0.00115068 0)
(-0.00268497 -0.00104858 0)
(-0.00211492 -0.000935949 0)
(-0.00160672 -0.000814038 0)
(-0.00116472 -0.000684616 0)
(-0.000792246 -0.000550112 0)
(-0.000491192 -0.000413837 0)
(-0.000261669 -0.000280275 0)
(-0.000101457 -0.000155475 0)
(-5.37958e-06 -4.75539e-05 0)
(3.54142e-05 3.27024e-05 0)
(3.44458e-05 7.1136e-05 0)
(9.83096e-06 4.96549e-05 0)
(-7.26196e-07 -5.52213e-05 0)
(-1.1875e-05 -5.41884e-05 0)
(-6.45746e-05 3.4063e-05 0)
(-0.000178365 0.000182425 0)
(-0.000367775 0.00036982 0)
(-0.000642035 0.000580139 0)
(-0.0010062 0.000801202 0)
(-0.00146193 0.0010239 0)
(-0.00200819 0.00124147 0)
(-0.00264184 0.00144896 0)
(-0.00335813 0.0016428 0)
(-0.00415109 0.00182043 0)
(-0.00501382 0.00198009 0)
(-0.0059388 0.00212066 0)
(-0.00691804 0.00224143 0)
(-0.00794328 0.00234208 0)
(-0.00900611 0.00242257 0)
(-0.0100981 0.00248304 0)
(-0.0112108 0.00252383 0)
(-0.0123359 0.00254539 0)
(-0.0134654 0.00254828 0)
(-0.0145914 0.00253313 0)
(-0.0157061 0.00250064 0)
(-0.0168022 0.00245156 0)
(-0.0178727 0.00238666 0)
(-0.0189109 0.00230675 0)
(-0.0199104 0.00221268 0)
(-0.0208651 0.00210529 0)
(-0.0217695 0.00198545 0)
(-0.0226182 0.00185406 0)
(-0.0234064 0.001712 0)
(-0.0241295 0.00156017 0)
(-0.0247836 0.0013995 0)
(-0.0253648 0.00123092 0)
(-0.02587 0.00105535 0)
(-0.0262962 0.000873763 0)
(-0.0266412 0.000687113 0)
(-0.0269027 0.00049638 0)
(-0.0270794 0.00030256 0)
(-0.0271701 0.000106659 0)
(-0.0271741 -9.0298e-05 0)
(-0.0270912 -0.00028727 0)
(-0.0269217 -0.000483201 0)
(-0.0266663 -0.00067702 0)
(-0.0263262 -0.000867642 0)
(-0.025903 -0.00105397 0)
(-0.025399 -0.00123489 0)
(-0.0248167 -0.0014093 0)
(-0.0241593 -0.00157606 0)
(-0.0234305 -0.00173406 0)
(-0.0226342 -0.00188218 0)
(-0.0217751 -0.00201931 0)
(-0.0208582 -0.00214436 0)
(-0.019889 -0.00225623 0)
(-0.0188735 -0.0023539 0)
(-0.0178182 -0.00243635 0)
(-0.0167297 -0.0025026 0)
(-0.0156153 -0.00255175 0)
(-0.0144826 -0.00258295 0)
(-0.0133394 -0.00259543 0)
(-0.0121939 -0.0025885 0)
(-0.0110546 -0.0025616 0)
(-0.00993001 -0.00251427 0)
(-0.00882886 -0.00244622 0)
(-0.00775992 -0.00235733 0)
(-0.00673192 -0.00224767 0)
(-0.00575344 -0.00211761 0)
(-0.00483279 -0.00196778 0)
(-0.0039779 -0.00179924 0)
(-0.00319607 -0.00161351 0)
(-0.00249385 -0.00141272 0)
(-0.00187672 -0.00119983 0)
(-0.0013488 -0.00097876 0)
(-0.000912476 -0.000754804 0)
(-0.000567937 -0.000534961 0)
(-0.000312622 -0.000328477 0)
(-0.00014057 -0.000147492 0)
(-4.17112e-05 -7.82574e-06 0)
(-8.64801e-07 7.00984e-05 0)
(1.88748e-06 6.03414e-05 0)
(-1.3166e-05 -4.96926e-05 0)
(-6.46901e-05 -9.337e-06 0)
(-0.000174939 0.000142251 0)
(-0.000363676 0.000371484 0)
(-0.00064566 0.000651678 0)
(-0.00103019 0.000961993 0)
(-0.00152224 0.00128633 0)
(-0.00212322 0.00161237 0)
(-0.00283164 0.00193081 0)
(-0.0036437 0.00223467 0)
(-0.00455378 0.00251878 0)
(-0.00555483 0.00277942 0)
(-0.00663873 0.00301394 0)
(-0.00779659 0.00322057 0)
(-0.00901892 0.00339819 0)
(-0.0102959 0.00354622 0)
(-0.0116174 0.00366448 0)
(-0.0129733 0.00375314 0)
(-0.0143535 0.00381259 0)
(-0.0157479 0.00384344 0)
(-0.0171468 0.00384646 0)
(-0.0185405 0.00382255 0)
(-0.0199198 0.00377271 0)
(-0.0212755 0.00369802 0)
(-0.0225992 0.00359961 0)
(-0.0238826 0.00347869 0)
(-0.0251178 0.00333649 0)
(-0.0262975 0.00317427 0)
(-0.0274148 0.00299333 0)
(-0.0284632 0.002795 0)
(-0.0294366 0.00258061 0)
(-0.0303297 0.00235152 0)
(-0.0311372 0.00210912 0)
(-0.0318547 0.00185481 0)
(-0.0324783 0.00158999 0)
(-0.0330042 0.00131611 0)
(-0.0334297 0.00103462 0)
(-0.0337523 0.000747011 0)
(-0.03397 0.000454771 0)
(-0.0340814 0.000159426 0)
(-0.0340859 -0.000137476 0)
(-0.0339831 -0.000434366 0)
(-0.0337733 -0.000729653 0)
(-0.0334575 -0.00102172 0)
(-0.0330372 -0.00130894 0)
(-0.0325144 -0.00158966 0)
(-0.0318918 -0.00186221 0)
(-0.0311727 -0.00212492 0)
(-0.0303609 -0.0023761 0)
(-0.0294609 -0.00261409 0)
(-0.0284776 -0.0028372 0)
(-0.0274168 -0.00304378 0)
(-0.0262846 -0.00323219 0)
(-0.0250878 -0.00340085 0)
(-0.0238337 -0.00354819 0)
(-0.02253 -0.00367271 0)
(-0.0211852 -0.003773 0)
(-0.019808 -0.00384771 0)
(-0.0184076 -0.0038956 0)
(-0.0169936 -0.00391556 0)
(-0.015576 -0.00390661 0)
(-0.0141649 -0.00386795 0)
(-0.0127707 -0.00379896 0)
(-0.011404 -0.00369926 0)
(-0.0100753 -0.00356873 0)
(-0.00879501 -0.0034076 0)
(-0.00757352 -0.00321644 0)
(-0.0064207 -0.00299632 0)
(-0.00534594 -0.00274886 0)
(-0.00435794 -0.00247637 0)
(-0.0034644 -0.00218206 0)
(-0.00267181 -0.00187021 0)
(-0.00198508 -0.00154649 0)
(-0.00140716 -0.00121834 0)
(-0.000938578 -0.000895439 0)
(-0.000576883 -0.000590298 0)
(-0.000316041 -0.000319008 0)
(-0.000145754 -0.000102106 0)
(-5.04272e-05 3.44278e-05 0)
(-9.73141e-06 5.8217e-05 0)
(-2.77943e-05 -2.80509e-05 0)
(-0.000126017 7.83464e-05 0)
(-0.000301685 0.000315654 0)
(-0.000573999 0.000645367 0)
(-0.000957098 0.00103618 0)
(-0.0014596 0.00146309 0)
(-0.0020858 0.0019064 0)
(-0.00283644 0.00235073 0)
(-0.0037093 0.0027842 0)
(-0.00469978 0.00319777 0)
(-0.00580134 0.00358461 0)
(-0.00700593 0.00393968 0)
(-0.00830432 0.00425934 0)
(-0.00968636 0.00454109 0)
(-0.0111413 0.0047833 0)
(-0.0126578 0.00498507 0)
(-0.0142245 0.00514604 0)
(-0.0158297 0.00526631 0)
(-0.0174617 0.00534636 0)
(-0.019109 0.00538695 0)
(-0.0207603 0.00538906 0)
(-0.0224044 0.00535387 0)
(-0.0240306 0.00528272 0)
(-0.0256284 0.00517705 0)
(-0.0271879 0.00503842 0)
(-0.0286993 0.00486846 0)
(-0.0301537 0.00466885 0)
(-0.0315424 0.00444135 0)
(-0.0328574 0.00418775 0)
(-0.034091 0.00390989 0)
(-0.0352362 0.00360961 0)
(-0.0362866 0.00328883 0)
(-0.0372364 0.00294947 0)
(-0.0380801 0.00259347 0)
(-0.0388132 0.00222282 0)
(-0.0394314 0.00183954 0)
(-0.0399315 0.00144565 0)
(-0.0403104 0.00104323 0)
(-0.040566 0.000634379 0)
(-0.0406966 0.000221229 0)
(-0.0407015 -0.000194057 0)
(-0.0405802 -0.000609285 0)
(-0.0403332 -0.00102223 0)
(-0.0399616 -0.00143064 0)
(-0.039467 -0.00183223 0)
(-0.0388521 -0.0022247 0)
(-0.0381198 -0.00260574 0)
(-0.037274 -0.00297301 0)
(-0.0363193 -0.00332417 0)
(-0.0352608 -0.0036569 0)
(-0.0341044 -0.00396887 0)
(-0.0328567 -0.0042578 0)
(-0.0315249 -0.00452141 0)
(-0.0301169 -0.00475752 0)
(-0.0286411 -0.00496397 0)
(-0.0271068 -0.00513872 0)
(-0.0255236 -0.0052798 0)
(-0.0239015 -0.00538541 0)
(-0.0222515 -0.00545385 0)
(-0.0205845 -0.00548363 0)
(-0.018912 -0.00547345 0)
(-0.0172458 -0.00542225 0)
(-0.0155979 -0.00532925 0)
(-0.0139804 -0.00519399 0)
(-0.0124054 -0.00501641 0)
(-0.0108849 -0.00479687 0)
(-0.00943072 -0.0045363 0)
(-0.00805412 -0.00423622 0)
(-0.00676584 -0.00389895 0)
(-0.00557577 -0.00352772 0)
(-0.00449273 -0.0031269 0)
(-0.00352417 -0.00270227 0)
(-0.00267585 -0.00226135 0)
(-0.00195143 -0.00181379 0)
(-0.00135207 -0.00137196 0)
(-0.000875882 -0.000951537 0)
(-0.000517355 -0.000572297 0)
(-0.000266708 -0.000258964 0)
(-0.000108779 -4.21645e-05 0)
(-2.36109e-05 4.07678e-05 0)
(-4.36195e-05 1.10559e-05 0)
(-0.000192034 0.000212537 0)
(-0.000437728 0.000559736 0)
(-0.000798945 0.00101063 0)
(-0.00128868 0.00153028 0)
(-0.00191431 0.00209021 0)
(-0.00267902 0.00266753 0)
(-0.00358246 0.00324403 0)
(-0.00462143 0.00380543 0)
(-0.00579034 0.00434064 0)
(-0.00708166 0.00484114 0)
(-0.0084863 0.00530056 0)
(-0.00999395 0.0057142 0)
(-0.0115933 0.00607876 0)
(-0.0132725 0.00639204 0)
(-0.0150189 0.00665274 0)
(-0.0168197 0.00686031 0)
(-0.0186621 0.00701478 0)
(-0.020533 0.00711665 0)
(-0.0224195 0.00716682 0)
(-0.024309 0.00716651 0)
(-0.0261889 0.0071172 0)
(-0.0280473 0.00702057 0)
(-0.0298722 0.00687848 0)
(-0.0316526 0.00669294 0)
(-0.0333776 0.00646604 0)
(-0.0350369 0.00620001 0)
(-0.0366208 0.00589712 0)
(-0.0381202 0.00555972 0)
(-0.0395266 0.00519022 0)
(-0.040832 0.00479109 0)
(-0.0420291 0.00436482 0)
(-0.0431112 0.00391396 0)
(-0.0440725 0.00344109 0)
(-0.0449075 0.00294884 0)
(-0.0456117 0.00243988 0)
(-0.0461811 0.0019169 0)
(-0.0466125 0.00138266 0)
(-0.0469034 0.000839937 0)
(-0.047052 0.000291561 0)
(-0.0470572 -0.000259601 0)
(-0.0469189 -0.00081064 0)
(-0.0466374 -0.00135861 0)
(-0.0462139 -0.00190052 0)
(-0.0456506 -0.00243336 0)
(-0.04495 -0.0029541 0)
(-0.0441159 -0.00345965 0)
(-0.0431524 -0.00394695 0)
(-0.0420648 -0.00441292 0)
(-0.0408588 -0.00485448 0)
(-0.0395413 -0.00526858 0)
(-0.0381194 -0.00565222 0)
(-0.0366016 -0.00600243 0)
(-0.0349965 -0.00631632 0)
(-0.0333138 -0.00659109 0)
(-0.0315638 -0.00682407 0)
(-0.0297572 -0.00701272 0)
(-0.0279056 -0.00715467 0)
(-0.026021 -0.00724776 0)
(-0.0241158 -0.00729007 0)
(-0.0222028 -0.00727995 0)
(-0.0202953 -0.00721608 0)
(-0.0184066 -0.00709751 0)
(-0.0165504 -0.00692372 0)
(-0.01474 -0.00669472 0)
(-0.0129888 -0.00641107 0)
(-0.01131 -0.00607407 0)
(-0.00971616 -0.00568579 0)
(-0.00821917 -0.00524932 0)
(-0.00683009 -0.00476887 0)
(-0.00555882 -0.00425007 0)
(-0.0044138 -0.00370026 0)
(-0.00340175 -0.00312881 0)
(-0.00252725 -0.00254762 0)
(-0.00179236 -0.00197162 0)
(-0.00119615 -0.00141945 0)
(-0.000734091 -0.000914165 0)
(-0.000397471 -0.000484072 0)
(-0.000172087 -0.000163512 0)
(-3.8755e-05 6.56933e-06 0)
(-5.99807e-05 6.8233e-05 0)
(-0.000260172 0.000395139 0)
(-0.000578211 0.000877593 0)
(-0.00103125 0.00147122 0)
(-0.00163083 0.00213834 0)
(-0.00238275 0.00284766 0)
(-0.0032887 0.0035736 0)
(-0.00434696 0.00429545 0)
(-0.00555308 0.0049967 0)
(-0.00690029 0.00566433 0)
(-0.00837995 0.00628821 0)
(-0.0099819 0.00686062 0)
(-0.0116947 0.00737581 0)
(-0.013506 0.00782963 0)
(-0.0154027 0.00821929 0)
(-0.017371 0.00854309 0)
(-0.0193972 0.00880022 0)
(-0.0214669 0.0089906 0)
(-0.0235661 0.00911479 0)
(-0.0256805 0.00917381 0)
(-0.0277963 0.00916913 0)
(-0.0298999 0.00910252 0)
(-0.0319779 0.00897604 0)
(-0.0340175 0.00879201 0)
(-0.0360063 0.00855288 0)
(-0.0379324 0.00826131 0)
(-0.0397845 0.00792006 0)
(-0.041552 0.007532 0)
(-0.0432247 0.00710009 0)
(-0.0447931 0.00662739 0)
(-0.0462487 0.00611701 0)
(-0.0475833 0.00557211 0)
(-0.0487895 0.00499595 0)
(-0.0498608 0.0043918 0)
(-0.0507914 0.00376301 0)
(-0.051576 0.00311297 0)
(-0.0522104 0.00244512 0)
(-0.052691 0.00176298 0)
(-0.053015 0.00107007 0)
(-0.0531806 0.000370014 0)
(-0.0531865 -0.000333543 0)
(-0.0530324 -0.0010369 0)
(-0.0527188 -0.00173629 0)
(-0.0522472 -0.00242794 0)
(-0.0516197 -0.003108 0)
(-0.0508394 -0.0037726 0)
(-0.0499102 -0.00441787 0)
(-0.0488369 -0.00503988 0)
(-0.0476251 -0.00563475 0)
(-0.0462813 -0.00619858 0)
(-0.0448129 -0.00672751 0)
(-0.0432281 -0.00721773 0)
(-0.0415357 -0.0076655 0)
(-0.0397457 -0.00806719 0)
(-0.0378684 -0.00841927 0)
(-0.0359153 -0.00871839 0)
(-0.0338982 -0.00896136 0)
(-0.0318298 -0.00914524 0)
(-0.0297231 -0.00926733 0)
(-0.027592 -0.00932527 0)
(-0.0254504 -0.00931702 0)
(-0.0233128 -0.009241 0)
(-0.0211939 -0.00909607 0)
(-0.0191085 -0.00888167 0)
(-0.0170713 -0.00859788 0)
(-0.0150971 -0.00824552 0)
(-0.0132 -0.00782626 0)
(-0.0113938 -0.0073428 0)
(-0.0096918 -0.00679901 0)
(-0.008106 -0.00620014 0)
(-0.00664743 -0.00555313 0)
(-0.00532562 -0.00486684 0)
(-0.00414835 -0.0041525 0)
(-0.00312133 -0.00342413 0)
(-0.00224778 -0.00269909 0)
(-0.00152803 -0.00199868 0)
(-0.00095892 -0.00134882 0)
(-0.000533139 -0.000780746 0)
(-0.000237753 -0.000331677 0)
(-5.4494e-05 -4.50501e-05 0)
(-7.64516e-05 0.000143601 0)
(-0.000328756 0.000626849 0)
(-0.000719901 0.00127064 0)
(-0.00126596 0.00202914 0)
(-0.00197691 0.00286272 0)
(-0.00285674 0.00373791 0)
(-0.00390538 0.00462687 0)
(-0.00511952 0.00550676 0)
(-0.00649322 0.0063591 0)
(-0.00801839 0.0071691 0)
(-0.00968515 0.00792512 0)
(-0.0114822 0.00861815 0)
(-0.0133968 0.00924139 0)
(-0.0154157 0.00978991 0)
(-0.0175246 0.0102603 0)
(-0.0197087 0.0106504 0)
(-0.0219529 0.0109592 0)
(-0.024242 0.0111864 0)
(-0.0265607 0.0113328 0)
(-0.0288938 0.0113994 0)
(-0.0312262 0.0113879 0)
(-0.0335433 0.0113005 0)
(-0.0358306 0.0111396 0)
(-0.0380744 0.010908 0)
(-0.0402611 0.0106087 0)
(-0.0423779 0.0102448 0)
(-0.0444126 0.00981975 0)
(-0.0463536 0.00933704 0)
(-0.0481901 0.00880032 0)
(-0.0499116 0.00821331 0)
(-0.0515089 0.00757983 0)
(-0.0529731 0.00690381 0)
(-0.0542964 0.00618922 0)
(-0.0554714 0.00544012 0)
(-0.056492 0.00466063 0)
(-0.0573525 0.00385495 0)
(-0.0580482 0.00302732 0)
(-0.0585753 0.00218207 0)
(-0.0589308 0.00132359 0)
(-0.0591126 0.000456319 0)
(-0.0591194 -0.000415227 0)
(-0.0589509 -0.00128648 0)
(-0.0586076 -0.0021528 0)
(-0.0580911 -0.00300951 0)
(-0.0574037 -0.00385189 0)
(-0.0565487 -0.00467517 0)
(-0.0555305 -0.00547456 0)
(-0.0543542 -0.00624526 0)
(-0.0530258 -0.00698246 0)
(-0.0515525 -0.00768138 0)
(-0.0499422 -0.00833729 0)
(-0.0482037 -0.00894551 0)
(-0.0463467 -0.00950147 0)
(-0.0443819 -0.0100007 0)
(-0.0423206 -0.0104389 0)
(-0.0401751 -0.010812 0)
(-0.0379581 -0.0111161 0)
(-0.0356834 -0.0113477 0)
(-0.0333652 -0.0115034 0)
(-0.0310182 -0.0115804 0)
(-0.0286576 -0.0115764 0)
(-0.026299 -0.0114893 0)
(-0.0239583 -0.011318 0)
(-0.0216514 -0.0110617 0)
(-0.0193943 -0.0107206 0)
(-0.0172027 -0.0102959 0)
(-0.0150922 -0.00978963 0)
(-0.0130777 -0.00920504 0)
(-0.0111733 -0.00854687 0)
(-0.00939253 -0.00782141 0)
(-0.00774739 -0.00703686 0)
(-0.00624862 -0.00620361 0)
(-0.00490521 -0.00533466 0)
(-0.00372417 -0.00444601 0)
(-0.00271011 -0.00355723 0)
(-0.00186485 -0.00269195 0)
(-0.00118685 -0.00187855 0)
(-0.000670436 -0.00115062 0)
(-0.000304073 -0.000547504 0)
(-7.03929e-05 -0.000114269 0)
(-9.27685e-05 0.000236978 0)
(-0.000396742 0.00090757 0)
(-0.000860734 0.00173912 0)
(-0.00149986 0.00268505 0)
(-0.00232247 0.0037044 0)
(-0.00333067 0.00476205 0)
(-0.00452247 0.00582837 0)
(-0.00589278 0.00687874 0)
(-0.00743401 0.00789296 0)
(-0.00913658 0.00885469 0)
(-0.0109893 0.00975089 0)
(-0.0129794 0.0105714 0)
(-0.0150933 0.0113084 0)
(-0.0173164 0.0119562 0)
(-0.0196331 0.0125107 0)
(-0.0220279 0.0129696 0)
(-0.0244844 0.0133314 0)
(-0.0269865 0.0135959 0)
(-0.0295177 0.0137637 0)
(-0.0320618 0.0138361 0)
(-0.0346029 0.0138151 0)
(-0.0371251 0.0137031 0)
(-0.0396132 0.013503 0)
(-0.0420523 0.013218 0)
(-0.0444282 0.0128518 0)
(-0.046727 0.012408 0)
(-0.0489358 0.0118908 0)
(-0.051042 0.0113042 0)
(-0.0530342 0.0106527 0)
(-0.0549012 0.00994073 0)
(-0.0566331 0.00917283 0)
(-0.0582204 0.00835373 0)
(-0.0596547 0.00748821 0)
(-0.0609282 0.00658116 0)
(-0.0620342 0.00563755 0)
(-0.0629668 0.00466241 0)
(-0.0637208 0.00366088 0)
(-0.0642922 0.00263816 0)
(-0.0646778 0.00159953 0)
(-0.0648754 0.000550355 0)
(-0.0648835 -0.000503931 0)
(-0.0647018 -0.00155782 0)
(-0.0643309 -0.00260575 0)
(-0.0637724 -0.00364207 0)
(-0.0630289 -0.0046611 0)
(-0.0621038 -0.00565711 0)
(-0.0610018 -0.00662435 0)
(-0.0597284 -0.00755704 0)
(-0.0582901 -0.00844942 0)
(-0.0566944 -0.00929575 0)
(-0.0549498 -0.0100904 0)
(-0.0530658 -0.0108276 0)
(-0.0510526 -0.0115021 0)
(-0.0489217 -0.0121084 0)
(-0.0466852 -0.0126415 0)
(-0.0443561 -0.0130964 0)
(-0.0419482 -0.0134686 0)
(-0.0394759 -0.0137537 0)
(-0.0369546 -0.0139479 0)
(-0.0343999 -0.0140479 0)
(-0.0318281 -0.0140508 0)
(-0.0292558 -0.0139544 0)
(-0.0266999 -0.0137572 0)
(-0.0241776 -0.0134585 0)
(-0.0217058 -0.0130585 0)
(-0.0193014 -0.0125587 0)
(-0.0169811 -0.0119614 0)
(-0.014761 -0.0112706 0)
(-0.0126565 -0.0104918 0)
(-0.0106819 -0.00963233 0)
(-0.00885083 -0.00870162 0)
(-0.00717509 -0.0077115 0)
(-0.00566508 -0.0066766 0)
(-0.00432924 -0.00561478 0)
(-0.00317376 -0.00454754 0)
(-0.00220214 -0.0035006 0)
(-0.00141462 -0.00250431 0)
(-0.000807269 -0.00159416 0)
(-0.000369981 -0.000811038 0)
(-8.61822e-05 -0.000200957 0)
(-0.00010878 0.00034801 0)
(-0.000463521 0.00123671 0)
(-0.000999469 0.00228255 0)
(-0.00173092 0.00343869 0)
(-0.00266469 0.00466335 0)
(-0.00380093 0.00592021 0)
(-0.00513564 0.00717827 0)
(-0.00666182 0.00841144 0)
(-0.00837013 0.00959808 0)
(-0.0102494 0.0107205 0)
(-0.0122868 0.0117644 0)
(-0.0144685 0.0127186 0)
(-0.0167795 0.0135744 0)
(-0.0192038 0.0143254 0)
(-0.0217251 0.014967 0)
(-0.0243265 0.0154964 0)
(-0.0269908 0.015912 0)
(-0.0297006 0.0162134 0)
(-0.0324386 0.0164014 0)
(-0.0351877 0.0164774 0)
(-0.0379308 0.0164437 0)
(-0.0406514 0.016303 0)
(-0.0433332 0.0160587 0)
(-0.0459605 0.0157146 0)
(-0.0485182 0.0152748 0)
(-0.0509918 0.0147437 0)
(-0.0533675 0.014126 0)
(-0.055632 0.0134266 0)
(-0.0577732 0.0126507 0)
(-0.0597794 0.0118034 0)
(-0.0616399 0.0108901 0)
(-0.0633448 0.00991649 0)
(-0.0648851 0.0088881 0)
(-0.0662527 0.00781071 0)
(-0.0674403 0.00669018 0)
(-0.0684418 0.00553246 0)
(-0.0692517 0.00434361 0)
(-0.0698658 0.00312976 0)
(-0.0702805 0.00189717 0)
(-0.0704935 0.000652152 0)
(-0.0705034 -0.000598873 0)
(-0.0703098 -0.00184941 0)
(-0.0699133 -0.00309288 0)
(-0.0693155 -0.00432263 0)
(-0.0685192 -0.00553197 0)
(-0.0675281 -0.00671413 0)
(-0.066347 -0.00786234 0)
(-0.0649817 -0.00896979 0)
(-0.0634392 -0.0100297 0)
(-0.0617272 -0.0110353 0)
(-0.0598549 -0.01198 0)
(-0.0578322 -0.0128571 0)
(-0.05567 -0.0136602 0)
(-0.0533803 -0.014383 0)
(-0.0509759 -0.0150196 0)
(-0.0484707 -0.0155642 0)
(-0.045879 -0.0160114 0)
(-0.0432164 -0.0163562 0)
(-0.0404989 -0.0165942 0)
(-0.0377431 -0.0167214 0)
(-0.0349662 -0.0167344 0)
(-0.032186 -0.0166309 0)
(-0.0294202 -0.0164089 0)
(-0.026687 -0.0160679 0)
(-0.0240045 -0.015608 0)
(-0.0213907 -0.0150308 0)
(-0.0188634 -0.0143393 0)
(-0.0164398 -0.0135379 0)
(-0.0141365 -0.0126329 0)
(-0.0119692 -0.0116325 0)
(-0.00995259 -0.0105475 0)
(-0.00809999 -0.00939092 0)
(-0.00642323 -0.00817897 0)
(-0.00493233 -0.00693112 0)
(-0.00363519 -0.00567064 0)
(-0.00253712 -0.00442496 0)
(-0.00164024 -0.00322614 0)
(-0.000942398 -0.00211111 0)
(-0.000434865 -0.00112183 0)
(-0.000101708 -0.000304808 0)
(-0.000124409 0.000476254 0)
(-0.000528783 0.00161338 0)
(-0.00113545 0.00289995 0)
(-0.00195805 0.00428919 0)
(-0.00300194 0.00573886 0)
(-0.00426534 0.00721185 0)
(-0.00574222 0.0086761 0)
(-0.00742359 0.0101044 0)
(-0.00929824 0.0114738 0)
(-0.0113533 0.0127657 0)
(-0.0135744 0.0139646 0)
(-0.0159462 0.0150583 0)
(-0.0184523 0.0160375 0)
(-0.0210758 0.0168952 0)
(-0.0237989 0.0176261 0)
(-0.0266037 0.0182273 0)
(-0.029472 0.0186969 0)
(-0.0323854 0.0190346 0)
(-0.0353257 0.0192411 0)
(-0.0382747 0.0193181 0)
(-0.0412147 0.0192681 0)
(-0.044128 0.0190945 0)
(-0.0469978 0.0188008 0)
(-0.0498074 0.0183916 0)
(-0.052541 0.0178715 0)
(-0.0551834 0.0172456 0)
(-0.0577201 0.0165193 0)
(-0.0601372 0.0156983 0)
(-0.0624218 0.0147884 0)
(-0.0645619 0.0137958 0)
(-0.066546 0.0127267 0)
(-0.068364 0.0115875 0)
(-0.0700062 0.0103848 0)
(-0.0714642 0.0091252 0)
(-0.0727305 0.00781552 0)
(-0.0737983 0.00646269 0)
(-0.0746622 0.00507372 0)
(-0.0753175 0.00365575 0)
(-0.0757607 0.00221603 0)
(-0.0759892 0.000761888 0)
(-0.0760015 -0.000699215 0)
(-0.0757971 -0.00215974 0)
(-0.0753768 -0.00361206 0)
(-0.0747423 -0.00504847 0)
(-0.0738963 -0.00646118 0)
(-0.0728427 -0.00784236 0)
(-0.0715865 -0.00918415 0)
(-0.070134 -0.0104787 0)
(-0.0684921 -0.0117181 0)
(-0.0666693 -0.0128945 0)
(-0.0646749 -0.0140003 0)
(-0.0625194 -0.0150277 0)
(-0.0602142 -0.0159694 0)
(-0.0577718 -0.0168181 0)
(-0.0552057 -0.0175669 0)
(-0.0525304 -0.0182091 0)
(-0.0497611 -0.0187385 0)
(-0.0469139 -0.0191493 0)
(-0.0440058 -0.0194365 0)
(-0.0410541 -0.0195954 0)
(-0.0380771 -0.0196224 0)
(-0.0350933 -0.0195143 0)
(-0.0321215 -0.0192693 0)
(-0.0291809 -0.0188865 0)
(-0.0262907 -0.0183662 0)
(-0.02347 -0.0177102 0)
(-0.0207376 -0.0169217 0)
(-0.018112 -0.0160057 0)
(-0.0156109 -0.0149693 0)
(-0.0132515 -0.0138217 0)
(-0.0110497 -0.0125745 0)
(-0.00902036 -0.011242 0)
(-0.00717689 -0.00984195 0)
(-0.005531 -0.00839518 0)
(-0.00409238 -0.00692648 0)
(-0.00286826 -0.0054648 0)
(-0.00186264 -0.00404353 0)
(-0.00107518 -0.00270074 0)
(-0.000498422 -0.00147914 0)
(-0.000116895 -0.000425427 0)
(-0.000139631 0.000621237 0)
(-0.000592423 0.00203659 0)
(-0.0012684 0.00359011 0)
(-0.00218074 0.00523533 0)
(-0.00333343 0.00692984 0)
(-0.00472282 0.008636 0)
(-0.00634083 0.010321 0)
(-0.00817644 0.0119568 0)
(-0.0102165 0.0135194 0)
(-0.0124464 0.0149893 0)
(-0.0148501 0.0163502 0)
(-0.0174107 0.0175891 0)
(-0.0201105 0.018696 0)
(-0.0229312 0.0196633 0)
(-0.025854 0.0204855 0)
(-0.0288597 0.0211593 0)
(-0.0319291 0.0216828 0)
(-0.0350428 0.0220556 0)
(-0.0381817 0.0222785 0)
(-0.0413268 0.0223536 0)
(-0.0444593 0.0222837 0)
(-0.0475609 0.0220725 0)
(-0.0506139 0.0217242 0)
(-0.0536011 0.0212438 0)
(-0.0565057 0.0206366 0)
(-0.059312 0.0199085 0)
(-0.0620048 0.0190655 0)
(-0.0645697 0.0181142 0)
(-0.0669933 0.0170613 0)
(-0.0692628 0.0159136 0)
(-0.0713666 0.0146784 0)
(-0.0732938 0.013363 0)
(-0.0750346 0.0119749 0)
(-0.0765801 0.0105217 0)
(-0.0779224 0.00901111 0)
(-0.0790547 0.00745115 0)
(-0.0799711 0.00584982 0)
(-0.0806667 0.00421529 0)
(-0.0811379 0.00255584 0)
(-0.081382 0.000879882 0)
(-0.0813974 -0.000804064 0)
(-0.0811836 -0.00248737 0)
(-0.0807413 -0.0041613 0)
(-0.0800722 -0.00581704 0)
(-0.0791793 -0.00744569 0)
(-0.0780664 -0.0090383 0)
(-0.0767389 -0.0105859 0)
(-0.0752031 -0.0120794 0)
(-0.0734663 -0.0135099 0)
(-0.0715373 -0.0148684 0)
(-0.0694256 -0.0161461 0)
(-0.0671423 -0.0173343 0)
(-0.0646992 -0.0184245 0)
(-0.0621093 -0.0194084 0)
(-0.0593867 -0.020278 0)
(-0.0565464 -0.0210258 0)
(-0.0536043 -0.0216448 0)
(-0.0505773 -0.0221283 0)
(-0.0474829 -0.0224704 0)
(-0.0443395 -0.022666 0)
(-0.0411661 -0.0227108 0)
(-0.0379821 -0.0226013 0)
(-0.0348073 -0.0223354 0)
(-0.0316619 -0.0219119 0)
(-0.0285661 -0.0213312 0)
(-0.02554 -0.0205952 0)
(-0.0226038 -0.0197074 0)
(-0.0197771 -0.0186734 0)
(-0.0170788 -0.0175008 0)
(-0.0145276 -0.0161996 0)
(-0.0121408 -0.0147824 0)
(-0.00993486 -0.0132648 0)
(-0.00792481 -0.0116655 0)
(-0.00612415 -0.0100068 0)
(-0.00454446 -0.00831472 0)
(-0.00319491 -0.00661949 0)
(-0.00208144 -0.00495564 0)
(-0.00120542 -0.00336212 0)
(-0.000560566 -0.00188214 0)
(-0.000131723 -0.000562393 0)
(-0.000154455 0.000782493 0)
(-0.000654469 0.0025053 0)
(-0.00139835 0.00435173 0)
(-0.00239893 0.00627575 0)
(-0.00365899 0.00823497 0)
(-0.00517304 0.0101915 0)
(-0.00693098 0.012112 0)
(-0.00891977 0.0139676 0)
(-0.0111243 0.0157339 0)
(-0.013528 0.0173904 0)
(-0.0161133 0.0189202 0)
(-0.0188617 0.0203097 0)
(-0.0217539 0.0215483 0)
(-0.0247704 0.022628 0)
(-0.027891 0.0235432 0)
(-0.0310956 0.0242901 0)
(-0.0343638 0.024867 0)
(-0.0376753 0.0252734 0)
(-0.04101 0.0255105 0)
(-0.0443479 0.0255805 0)
(-0.0476695 0.0254867 0)
(-0.0509559 0.0252331 0)
(-0.0541884 0.0248247 0)
(-0.0573491 0.0242669 0)
(-0.0604208 0.0235658 0)
(-0.063387 0.022728 0)
(-0.0662319 0.0217604 0)
(-0.0689408 0.0206702 0)
(-0.0714994 0.0194651 0)
(-0.0738949 0.018153 0)
(-0.076115 0.0167418 0)
(-0.0781484 0.0152398 0)
(-0.0799851 0.0136556 0)
(-0.0816157 0.0119977 0)
(-0.0830321 0.010275 0)
(-0.0842273 0.00849634 0)
(-0.085195 0.00667088 0)
(-0.0859303 0.00480783 0)
(-0.0864294 0.00291656 0)
(-0.0866894 0.00100659 0)
(-0.0867087 -0.000912469 0)
(-0.0864867 -0.00283085 0)
(-0.0860241 -0.00473868 0)
(-0.0853227 -0.00662599 0)
(-0.0843853 -0.00848274 0)
(-0.0832162 -0.0102988 0)
(-0.0818207 -0.012064 0)