/*--------------------------------*- C++ -*----------------------------------*\
| =========                 |                                                 |
| \\      /  F ield         | OpenFOAM: The Open Source CFD Toolbox           |
|  \\    /   O peration     | Version:  4.1                                   |
|   \\  /    A nd           | Web:      www.OpenFOAM.org                      |
|    \\/     M anipulation  |                                                 |
\*---------------------------------------------------------------------------*/
FoamFile
{
    version     2.0;
    format      ascii;
    class       volVectorField;
    location    "5";
    object      U;
}
// * * * * * * * * * * * * * * * * * * * * * * * * * * * * * * * * * * * * * //

dimensions      [0 1 -1 0 0 0 0];

internalField   nonuniform List<vector> 
400
(
(0.000164475 -0.000161634 0)
(-0.00013659 9.30517e-05 0)
(-0.00146837 0.00031275 0)
(-0.00345889 0.000472579 0)
(-0.00589869 0.000548706 0)
(-0.00848832 0.000572002 0)
(-0.0110313 0.000547637 0)
(-0.0133174 0.000480226 0)
(-0.0151513 0.000364829 0)
(-0.0163284 0.000199494 0)
(-0.0166656 -1.12385e-05 0)
(-0.0160337 -0.000249596 0)
(-0.0144051 -0.000483949 0)
(-0.0119007 -0.000670052 0)
(-0.00879907 -0.000763416 0)
(-0.0055429 -0.000725761 0)
(-0.00262279 -0.00055504 0)
(-0.000555732 -0.00026475 0)
(0.000425299 3.86933e-05 0)
(0.000277388 0.000262974 0)
(-9.34694e-05 0.000127799 0)
(-0.0018883 0.00179395 0)
(-0.00584598 0.00331531 0)
(-0.0111565 0.00439357 0)
(-0.0173754 0.00493758 0)
(-0.0238615 0.00503208 0)
(-0.0301335 0.00471577 0)
(-0.0356841 0.00400901 0)
(-0.0400422 0.0029097 0)
(-0.0427473 0.00143829 0)
(-0.0434124 -0.000331359 0)
(-0.0417925 -0.00224438 0)
(-0.0378703 -0.00406274 0)
(-0.0319376 -0.00548771 0)
(-0.0246078 -0.00622392 0)
(-0.016818 -0.00605032 0)
(-0.0096089 -0.00494169 0)
(-0.00407104 -0.00307316 0)
(-0.000728999 -0.00102476 0)
(0.000138496 0.000457076 0)
(-0.000377585 0.00156225 0)
(-0.00387837 0.0058528 0)
(-0.0104474 0.00943229 0)
(-0.018773 0.0118778 0)
(-0.028231 0.0130742 0)
(-0.0379418 0.0131547 0)
(-0.0472327 0.0121943 0)
(-0.0553917 0.0102361 0)
(-0.0617604 0.00730239 0)
(-0.0657071 0.00347718 0)
(-0.0667108 -0.00102893 0)
(-0.064444 -0.00582931 0)
(-0.0588763 -0.0103605 0)
(-0.0503778 -0.0139361 0)
(-0.0397415 -0.015879 0)
(-0.0282113 -0.0156864 0)
(-0.0172073 -0.013275 0)
(-0.00829888 -0.00904736 0)
(-0.00232428 -0.00418537 0)
(-3.95333e-05 -0.00018731 0)
(-0.000652515 0.00400489 0)
(-0.00581687 0.0119766 0)
(-0.0148851 0.0181303 0)
(-0.0259949 0.0221495 0)
(-0.0383535 0.0240145 0)
(-0.050894 0.023942 0)
(-0.0628223 0.0220553 0)
(-0.0732951 0.018423 0)
(-0.0815315 0.0130992 0)
(-0.086777 0.00624492 0)
(-0.0883942 -0.00177049 0)
(-0.0859487 -0.0102957 0)
(-0.0793246 -0.0183919 0)
(-0.0688562 -0.0249106 0)
(-0.0553839 -0.0286896 0)
(-0.0403517 -0.0288243 0)
(-0.0255164 -0.0250681 0)
(-0.0129981 -0.0180045 0)
(-0.00407941 -0.0094397 0)
(-0.000214585 -0.0016599 0)
(-0.000887885 0.00743291 0)
(-0.00757122 0.0201503 0)
(-0.0189578 0.0293906 0)
(-0.0326401 0.0351695 0)
(-0.0476658 0.0377035 0)
(-0.0628141 0.0373518 0)
(-0.0772196 0.0343084 0)
(-0.0899615 0.0286696 0)
(-0.100182 0.020515 0)
(-0.107027 0.0100723 0)
(-0.109733 -0.00214091 0)
(-0.107708 -0.0152119 0)
(-0.100654 -0.0278063 0)
(-0.0887389 -0.0382486 0)
(-0.0727153 -0.044761 0)
(-0.0541348 -0.0458474 0)
(-0.0350906 -0.0408899 0)
(-0.0184079 -0.0305159 0)
(-0.0060273 -0.0171645 0)
(-0.000374561 -0.00404372 0)
(-0.00109401 0.0117058 0)
(-0.00912469 0.0301247 0)
(-0.0225936 0.0429153 0)
(-0.0385989 0.0506202 0)
(-0.0560498 0.0538368 0)
(-0.0736086 0.0531393 0)
(-0.0903811 0.0488233 0)
(-0.105417 0.0410105 0)
(-0.11782 0.0297846 0)
(-0.126661 0.0154006 0)
(-0.131041 -0.00152633 0)
(-0.130162 -0.0198724 0)
(-0.123449 -0.0379321 0)
(-0.110765 -0.0534639 0)
(-0.0926013 -0.0639305 0)
(-0.0704688 -0.0669784 0)
(-0.0467432 -0.0612725 0)
(-0.0251072 -0.0472046 0)
(-0.00844433 -0.0278051 0)
(-0.000568752 -0.0074539 0)
(-0.00126619 0.0167256 0)
(-0.0104426 0.0417006 0)
(-0.0256996 0.0584692 0)
(-0.0437112 0.068271 0)
(-0.0632759 0.0722207 0)
(-0.0829783 0.0711831 0)
(-0.101936 0.0655905 0)
(-0.119214 0.0555878 0)
(-0.133927 0.0412311 0)
(-0.145101 0.0227437 0)
(-0.151723 0.000756004 0)
(-0.152771 -0.0234905 0)
(-0.147331 -0.047996 0)
(-0.134825 -0.0699651 0)
(-0.11528 -0.0859774 0)
(-0.0899175 -0.092505 0)
(-0.0612025 -0.0869868 0)
(-0.0337295 -0.069073 0)
(-0.011659 -0.0421882 0)
(-0.000845614 -0.0122142 0)
(-0.00140209 0.0223516 0)
(-0.0114887 0.0545876 0)
(-0.0281696 0.0756921 0)
(-0.0477696 0.0877402 0)
(-0.0690021 0.0924912 0)
(-0.0904139 0.0911771 0)
(-0.111172 0.0844089 0)
(-0.130412 0.0723555 0)
(-0.147308 0.0550144 0)
(-0.160911 0.0325094 0)
(-0.170149 0.00538287 0)
(-0.173821 -0.0251408 0)
(-0.170672 -0.0569122 0)
(-0.159601 -0.0866879 0)
(-0.139959 -0.110132 0)
(-0.112324 -0.122249 0)
(-0.0788512 -0.118595 0)
(-0.0448532 -0.0972328 0)
(-0.0160474 -0.0614125 0)
(-0.00127144 -0.0188222 0)
(-0.00149918 0.0284404 0)
(-0.0122307 0.0684683 0)
(-0.0299 0.0941644 0)
(-0.0505503 0.108546 0)
(-0.072826 0.11414 0)
(-0.095275 0.112622 0)
(-0.11715 0.104836 0)
(-0.137709 0.090987 0)
(-0.156261 0.0709959 0)
(-0.171965 0.044829 0)
(-0.183798 0.0128371 0)
(-0.190497 -0.0239326 0)
(-0.19056 -0.0633945 0)
(-0.182372 -0.10209 0)
(-0.164471 -0.134913 0)
(-0.136394 -0.155265 0)
(-0.0993658 -0.15612 0)
(-0.0588104 -0.132711 0)
(-0.0219983 -0.0868344 0)
(-0.00192958 -0.0280041 0)
(-0.00156321 0.0348209 0)
(-0.0126789 0.0829553 0)
(-0.0308556 0.113348 0)
(-0.0519036 0.130027 0)
(-0.0744016 0.136414 0)
(-0.0969406 0.13471 0)
(-0.118894 0.126056 0)
(-0.139703 0.110727 0)
(-0.158883 0.0885735 0)
(-0.175813 0.0593744 0)
(-0.189662 0.0232088 0)
(-0.199276 -0.0192099 0)
(-0.2031 -0.0661172 0)
(-0.199157 -0.114203 0)
(-0.185186 -0.157978 0)
(-0.159381 -0.189433 0)
(-0.121323 -0.198467 0)
(-0.0754277 -0.175949 0)
(-0.0298806 -0.119857 0)
(-0.00293713 -0.0407189 0)
(-0.00162534 0.041388 0)
(-0.0129331 0.0977139 0)
(-0.0311399 0.132693 0)
(-0.0518485 0.151417 0)
(-0.0735669 0.158364 0)
(-0.0949874 0.156343 0)
(-0.115644 0.146881 0)
(-0.135227 0.130367 0)
(-0.153533 0.106621 0)
(-0.170267 0.0752418 0)
(-0.184931 0.0360017 0)
(-0.196684 -0.0108358 0)
(-0.20417 -0.0640755 0)
(-0.205339 -0.120994 0)
(-0.197377 -0.176342 0)
(-0.177095 -0.221353 0)
(-0.141881 -0.242917 0)
(-0.0936537 -0.226149 0)
(-0.0399376 -0.161578 0)
(-0.00445797 -0.0581757 0)
(-0.00174713 0.0480514 0)
(-0.013255 0.112383 0)
(-0.0311153 0.151553 0)
(-0.0507256 0.171768 0)
(-0.0705188 0.178788 0)
(-0.0893986 0.176115 0)
(-0.107117 0.16576 0)
(-0.123694 0.148282 0)
(-0.139271 0.123527 0)
(-0.15396 0.0909561 0)
(-0.167712 0.0500537 0)
(-0.180157 0.000589949 0)
(-0.190402 -0.0569773 0)
(-0.196679 -0.120915 0)
(-0.196093 -0.186957 0)
(-0.18441 -0.246682 0)
(-0.156779 -0.284904 0)
(-0.111174 -0.280507 0)
(-0.0520681 -0.212151 0)
(-0.00671132 -0.0817693 0)
(-0.00208228 0.0551448 0)
(-0.0141355 0.127052 0)
(-0.031424 0.169576 0)
(-0.0491837 0.190228 0)
(-0.0657852 0.196441 0)
(-0.0805463 0.192484 0)
(-0.0935204 0.180945 0)
(-0.105156 0.162594 0)
(-0.115987 0.137353 0)
(-0.126575 0.104599 0)
(-0.137366 0.0635898 0)
(-0.148552 0.0136407 0)
(-0.159887 -0.0455625 0)
(-0.170222 -0.113518 0)
(-0.177176 -0.187586 0)
(-0.176157 -0.261041 0)
(-0.160762 -0.318467 0)
(-0.124187 -0.333766 0)
(-0.065432 -0.269967 0)
(-0.00995439 -0.112946 0)
(-0.00287274 0.062912 0)
(-0.0165008 0.141569 0)
(-0.0332422 0.18607 0)
(-0.0483929 0.205556 0)
(-0.0603226 0.209712 0)
(-0.0691689 0.203611 0)
(-0.0754129 0.190475 0)
(-0.0800688 0.171268 0)
(-0.08408 0.146011 0)
(-0.0884655 0.114043 0)
(-0.094142 0.0744687 0)
(-0.101858 0.026257 0)
(-0.112083 -0.0315641 0)
(-0.1245 -0.0997086 0)
(-0.137802 -0.177497 0)
(-0.147904 -0.261085 0)
(-0.148257 -0.337272 0)
(-0.127479 -0.378311 0)
(-0.0779104 -0.330671 0)
(-0.0143993 -0.15269 0)
(-0.00465759 0.0735762 0)
(-0.0215704 0.157547 0)
(-0.037686 0.20146 0)
(-0.0491444 0.216998 0)
(-0.0544576 0.217138 0)
(-0.0552378 0.207647 0)
(-0.0525319 0.192328 0)
(-0.0480724 0.17221 0)
(-0.0431997 0.147355 0)
(-0.0393502 0.117062 0)
(-0.0378355 0.0803427 0)
(-0.0398777 0.035955 0)
(-0.0466205 -0.0175134 0)
(-0.0586194 -0.0817223 0)
(-0.0760139 -0.157835 0)
(-0.0959879 -0.245506 0)
(-0.113711 -0.336107 0)
(-0.114568 -0.405285 0)
(-0.0853844 -0.386762 0)
(-0.0199978 -0.20106 0)
(-0.00827279 0.0872555 0)
(-0.0318416 0.173869 0)
(-0.046509 0.213492 0)
(-0.0519767 0.221666 0)
(-0.047242 0.215717 0)
(-0.0366958 0.20179 0)
(-0.0220709 0.183985 0)
(-0.00596554 0.163165 0)
(0.00997903 0.139305 0)
(0.0240133 0.111636 0)
(0.0345681 0.0791204 0)
(0.0400897 0.0404495 0)
(0.0389015 -0.0059683 0)
(0.0297008 -0.0622851 0)
(0.0108292 -0.130968 0)
(-0.016584 -0.214888 0)
(-0.0512417 -0.311482 0)
(-0.0776026 -0.405317 0)
(-0.0810324 -0.42664 0)
(-0.0258611 -0.254815 0)
(-0.01482 0.114211 0)
(-0.046781 0.195861 0)
(-0.0552625 0.223124 0)
(-0.0490883 0.217544 0)
(-0.0285634 0.202336 0)
(-0.0022222 0.182813 0)
(0.0277267 0.162478 0)
(0.057914 0.141536 0)
(0.0866505 0.119584 0)
(0.112096 0.0957052 0)
(0.132639 0.0688163 0)
(0.146598 0.0376549 0)
(0.151997 0.000672568 0)
(0.147016 -0.0442937 0)
(0.128747 -0.100275 0)
(0.0966039 -0.172177 0)
(0.0472168 -0.263431 0)
(-0.00582455 -0.371629 0)
(-0.0533215 -0.436995 0)
(-0.028718 -0.308407 0)
(-0.0256628 0.142326 0)
(-0.0663408 0.208757 0)
(-0.0501004 0.214957 0)
(-0.018331 0.192681 0)
(0.0286152 0.16862 0)
(0.0768778 0.145449 0)
(0.125289 0.124733 0)
(0.1706 0.105766 0)
(0.211797 0.0876112 0)
(0.247507 0.0692447 0)
(0.276492 0.0496151 0)
(0.297284 0.0276513 0)
(0.307964 0.00206559 0)
(0.306473 -0.0288472 0)
(0.289236 -0.0678586 0)
(0.25416 -0.119925 0)
(0.19347 -0.192355 0)
(0.116204 -0.295665 0)
(0.0164213 -0.394602 0)
(-0.0174189 -0.338277 0)
(-0.0186289 0.21509 0)
(-0.0196219 0.21556 0)
(0.0563237 0.181065 0)
(0.127445 0.139225 0)
(0.203055 0.109046 0)
(0.269915 0.0868112 0)
(0.330317 0.0698358 0)
(0.38301 0.0563099 0)
(0.428425 0.0447171 0)
(0.466313 0.0340166 0)
(0.49624 0.0233327 0)
(0.517338 0.0119302 0)
(0.528209 -0.001028 0)
(0.527008 -0.0165133 0)
(0.51049 -0.0365013 0)
(0.47563 -0.0643778 0)
(0.412671 -0.108327 0)
(0.32259 -0.186606 0)
(0.172385 -0.296449 0)
(0.0428025 -0.334923 0)
(0.211464 0.129737 0)
(0.297693 0.101095 0)
(0.451634 0.0674646 0)
(0.54345 0.0441686 0)
(0.617638 0.0288641 0)
(0.672841 0.0196235 0)
(0.716117 0.0136715 0)
(0.750223 0.00970686 0)
(0.777197 0.00681818 0)
(0.79805 0.00449445 0)
(0.813191 0.0023943 0)
(0.822513 0.000293351 0)
(0.825454 -0.00203044 0)
(0.82095 -0.00476087 0)
(0.807069 -0.00843802 0)
(0.780791 -0.0136509 0)
(0.734065 -0.0229012 0)
(0.658477 -0.0407606 0)
(0.498092 -0.0744079 0)
(0.288335 -0.136248 0)
)
;

boundaryField
{
    movingWall
    {
        type            fixedValue;
        value           uniform (1 0 0);
    }
    fixedWalls
    {
        type            noSlip;
    }
    frontAndBack
    {
        type            empty;
    }
}


// ************************************************************************* //
