/*--------------------------------*- C++ -*----------------------------------*\
| =========                 |                                                 |
| \\      /  F ield         | OpenFOAM: The Open Source CFD Toolbox           |
|  \\    /   O peration     | Version:  4.1                                   |
|   \\  /    A nd           | Web:      www.OpenFOAM.org                      |
|    \\/     M anipulation  |                                                 |
\*---------------------------------------------------------------------------*/
FoamFile
{
    version     2.0;
    format      ascii;
    class       volVectorField;
    location    "0.144";
    object      U;
}
// * * * * * * * * * * * * * * * * * * * * * * * * * * * * * * * * * * * * * //

dimensions      [0 1 -1 0 0 0 0];

internalField   nonuniform List<vector> 
6400
(
(8.02474e-06 -7.98974e-06 0)
(3.02914e-05 -1.16394e-05 0)
(4.85397e-05 -8.08914e-06 0)
(5.65964e-05 1.2005e-06 0)
(5.02308e-05 1.42172e-05 0)
(2.69539e-05 2.93868e-05 0)
(-1.4462e-05 4.55628e-05 0)
(-7.43259e-05 6.19321e-05 0)
(-0.000152297 7.79236e-05 0)
(-0.000247581 9.31408e-05 0)
(-0.000359069 0.000107312 0)
(-0.000485441 0.000120255 0)
(-0.000625239 0.000131853 0)
(-0.000776921 0.000142036 0)
(-0.000938899 0.00015077 0)
(-0.00110957 0.000158043 0)
(-0.00128733 0.000163864 0)
(-0.00147061 0.000168257 0)
(-0.00165785 0.000171253 0)
(-0.00184756 0.000172893 0)
(-0.00203827 0.000173223 0)
(-0.00222859 0.000172294 0)
(-0.00241716 0.000170158 0)
(-0.0026027 0.000166872 0)
(-0.00278398 0.000162493 0)
(-0.00295984 0.00015708 0)
(-0.00312919 0.000150692 0)
(-0.003291 0.000143389 0)
(-0.00344429 0.000135233 0)
(-0.00358817 0.000126285 0)
(-0.00372181 0.000116606 0)
(-0.00384445 0.000106258 0)
(-0.00395539 9.53058e-05 0)
(-0.004054 8.38113e-05 0)
(-0.00413973 7.18387e-05 0)
(-0.00421209 5.94531e-05 0)
(-0.00427066 4.67201e-05 0)
(-0.00431511 3.37063e-05 0)
(-0.00434517 2.04793e-05 0)
(-0.00436063 7.10808e-06 0)
(-0.00436138 -6.33758e-06 0)
(-0.00434738 -1.97865e-05 0)
(-0.00431867 -3.31665e-05 0)
(-0.00427535 -4.6404e-05 0)
(-0.00421763 -5.94246e-05 0)
(-0.00414578 -7.21525e-05 0)
(-0.00406017 -8.45114e-05 0)
(-0.00396123 -9.64241e-05 0)
(-0.0038495 -0.000107813 0)
(-0.00372559 -0.0001186 0)
(-0.00359019 -0.000128707 0)
(-0.0034441 -0.000138057 0)
(-0.00328817 -0.000146573 0)
(-0.00312336 -0.000154179 0)
(-0.0029507 -0.000160801 0)
(-0.0027713 -0.000166368 0)
(-0.00258634 -0.000170809 0)
(-0.0023971 -0.000174059 0)
(-0.0022049 -0.000176056 0)
(-0.00201114 -0.000176743 0)
(-0.00181728 -0.000176068 0)
(-0.00162483 -0.000173985 0)
(-0.00143535 -0.000170459 0)
(-0.00125042 -0.00016546 0)
(-0.00107168 -0.000158973 0)
(-0.000900749 -0.000150995 0)
(-0.000739264 -0.000141541 0)
(-0.000588835 -0.000130647 0)
(-0.000451026 -0.000118376 0)
(-0.000327326 -0.000104829 0)
(-0.000219106 -9.01547e-05 0)
(-0.000127564 -7.45658e-05 0)
(-5.36565e-05 -5.83639e-05 0)
(2.00699e-06 -4.19722e-05 0)
(3.92955e-05 -2.59819e-05 0)
(5.87453e-05 -1.12156e-05 0)
(6.18125e-05 1.18893e-06 0)
(5.11919e-05 9.69798e-06 0)
(3.12497e-05 1.24031e-05 0)
(8.16047e-06 8.09385e-06 0)
(1.18031e-05 -3.02311e-05 0)
(4.557e-05 -4.50878e-05 0)
(6.53088e-05 -2.69785e-05 0)
(5.67361e-05 1.37763e-05 0)
(9.8075e-06 6.89659e-05 0)
(-8.16056e-05 0.000132469 0)
(-0.000220716 0.000199826 0)
(-0.000408518 0.000267837 0)
(-0.000644362 0.000334229 0)
(-0.000926395 0.000397403 0)
(-0.00125189 0.000456254 0)
(-0.00161751 0.00051003 0)
(-0.00201948 0.000558242 0)
(-0.00245375 0.000600592 0)
(-0.0029161 0.000636924 0)
(-0.00340221 0.000667185 0)
(-0.00390775 0.0006914 0)
(-0.0044284 0.000709656 0)
(-0.00495992 0.000722079 0)
(-0.00549812 0.000728833 0)
(-0.00603898 0.000730102 0)
(-0.00657856 0.000726093 0)
(-0.00711311 0.000717025 0)
(-0.007639 0.000703128 0)
(-0.00815279 0.00068464 0)
(-0.0086512 0.000661806 0)
(-0.00913112 0.000634872 0)
(-0.00958964 0.000604093 0)
(-0.010024 0.000569722 0)
(-0.0104317 0.000532017 0)
(-0.0108103 0.000491238 0)
(-0.0111578 0.000447647 0)
(-0.011472 0.000401508 0)
(-0.0117512 0.000353089 0)
(-0.0119939 0.00030266 0)
(-0.0121987 0.000250493 0)
(-0.0123644 0.000196867 0)
(-0.01249 0.000142061 0)
(-0.0125748 8.63629e-05 0)
(-0.0126182 3.00608e-05 0)
(-0.0126199 -2.65499e-05 0)
(-0.0125798 -8.31698e-05 0)
(-0.012498 -0.000139495 0)
(-0.0123749 -0.000195215 0)
(-0.0122109 -0.000250017 0)
(-0.012007 -0.000303584 0)
(-0.0117642 -0.000355594 0)
(-0.0114836 -0.000405723 0)
(-0.0111669 -0.000453646 0)
(-0.0108158 -0.000499036 0)
(-0.0104323 -0.000541566 0)
(-0.0100185 -0.000580912 0)
(-0.00957696 -0.000616752 0)
(-0.00911037 -0.000648772 0)
(-0.00862162 -0.000676661 0)
(-0.00811384 -0.00070012 0)
(-0.00759037 -0.000718862 0)
(-0.00705476 -0.000732611 0)
(-0.00651072 -0.000741113 0)
(-0.00596217 -0.000744129 0)
(-0.00541315 -0.000741449 0)
(-0.00486787 -0.000732888 0)
(-0.00433062 -0.000718297 0)
(-0.0038058 -0.000697566 0)
(-0.00329785 -0.000670633 0)
(-0.00281121 -0.000637494 0)
(-0.0023503 -0.000598219 0)
(-0.00191946 -0.000552965 0)
(-0.00152283 -0.000502007 0)
(-0.00116432 -0.000445764 0)
(-0.000847488 -0.000384853 0)
(-0.000575351 -0.000320152 0)
(-0.000350249 -0.000252886 0)
(-0.000173574 -0.000184759 0)
(-4.5456e-05 -0.000118123 0)
(3.56514e-05 -5.62121e-05 0)
(7.3508e-05 -3.44835e-06 0)
(7.47245e-05 3.42062e-05 0)
(4.96662e-05 4.89134e-05 0)
(1.26642e-05 3.11128e-05 0)
(8.45382e-06 -4.86558e-05 0)
(2.82485e-05 -6.48905e-05 0)
(2.11003e-05 -1.93425e-05 0)
(-3.14182e-05 6.83973e-05 0)
(-0.000142734 0.000183245 0)
(-0.000321294 0.000313875 0)
(-0.000571693 0.0004519 0)
(-0.00089548 0.000591175 0)
(-0.00129186 0.000727241 0)
(-0.00175827 0.000856897 0)
(-0.00229079 0.000977877 0)
(-0.00288455 0.00108861 0)
(-0.00353395 0.00118803 0)
(-0.00423294 0.00127548 0)
(-0.00497511 0.00135058 0)
(-0.00575389 0.00141317 0)
(-0.00656261 0.00146326 0)
(-0.0073946 0.00150098 0)
(-0.00824327 0.00152657 0)
(-0.00910212 0.00154033 0)
(-0.00996481 0.00154263 0)
(-0.0108252 0.00153388 0)
(-0.0116773 0.00151451 0)
(-0.0125155 0.00148501 0)
(-0.0133343 0.00144585 0)
(-0.0141285 0.00139754 0)
(-0.0148932 0.00134059 0)
(-0.0156237 0.00127554 0)
(-0.0163157 0.00120291 0)
(-0.0169651 0.00112324 0)
(-0.0175681 0.00103709 0)
(-0.0181214 0.000944992 0)
(-0.0186218 0.000847522 0)
(-0.0190664 0.000745238 0)
(-0.0194527 0.000638713 0)
(-0.0197785 0.000528526 0)
(-0.020042 0.000415264 0)
(-0.0202417 0.000299523 0)
(-0.0203763 0.000181907 0)
(-0.0204449 6.30298e-05 0)
(-0.0204471 -5.64839e-05 0)
(-0.0203827 -0.000176 0)
(-0.020252 -0.000294876 0)
(-0.0200554 -0.000412459 0)
(-0.0197938 -0.000528086 0)
(-0.0194687 -0.000641088 0)
(-0.0190815 -0.000750789 0)
(-0.0186345 -0.000856508 0)
(-0.0181299 -0.000957559 0)
(-0.0175707 -0.00105326 0)
(-0.0169598 -0.00114292 0)
(-0.016301 -0.00122587 0)
(-0.015598 -0.00130143 0)
(-0.0148552 -0.00136895 0)
(-0.0140772 -0.00142778 0)
(-0.0132688 -0.0014773 0)
(-0.0124355 -0.00151693 0)
(-0.0115827 -0.00154608 0)
(-0.0107164 -0.00156425 0)
(-0.00984268 -0.00157095 0)
(-0.00896788 -0.00156575 0)
(-0.00809858 -0.00154828 0)
(-0.00724149 -0.00151827 0)
(-0.00640342 -0.00147551 0)
(-0.00559127 -0.0014199 0)
(-0.00481189 -0.00135146 0)
(-0.00407205 -0.00127039 0)
(-0.00337835 -0.00117705 0)
(-0.00273708 -0.00107205 0)
(-0.0021541 -0.000956313 0)
(-0.00163467 -0.00083114 0)
(-0.00118322 -0.000698356 0)
(-0.000803077 -0.000560461 0)
(-0.000496158 -0.000420861 0)
(-0.000262515 -0.000284164 0)
(-9.98155e-05 -0.000156579 0)
(-2.69515e-06 -4.64272e-05 0)
(3.79728e-05 3.52427e-05 0)
(3.6091e-05 7.39502e-05 0)
(1.02523e-05 5.12243e-05 0)
(-5.67294e-07 -5.72234e-05 0)
(-1.14399e-05 -5.70332e-05 0)
(-6.4792e-05 3.29022e-05 0)
(-0.000180734 0.000184754 0)
(-0.000374232 0.000376864 0)
(-0.000654813 0.000592667 0)
(-0.00102771 0.000819632 0)
(-0.00149467 0.00104838 0)
(-0.00205465 0.00127194 0)
(-0.00270446 0.00148521 0)
(-0.00343923 0.0016845 0)
(-0.00425285 0.00186718 0)
(-0.00513825 0.00203143 0)
(-0.0060877 0.00217607 0)
(-0.007093 0.00230038 0)
(-0.00814566 0.00240402 0)
(-0.00923704 0.00248694 0)
(-0.0103585 0.00254928 0)
(-0.0115013 0.00259139 0)
(-0.0126569 0.00261371 0)
(-0.0138171 0.00261683 0)
(-0.0149737 0.00260139 0)
(-0.0161188 0.0025681 0)
(-0.0172449 0.00251772 0)
(-0.0183446 0.00245106 0)
(-0.0194111 0.00236895 0)
(-0.0204377 0.00227225 0)
(-0.0214184 0.00216183 0)
(-0.0223472 0.00203859 0)
(-0.0232188 0.00190344 0)
(-0.0240281 0.0017573 0)
(-0.0247705 0.00160111 0)
(-0.0254418 0.00143581 0)
(-0.0260381 0.00126237 0)
(-0.0265562 0.00108174 0)
(-0.026993 0.000894917 0)
(-0.0273462 0.000702897 0)
(-0.0276136 0.000506693 0)
(-0.0277936 0.000307332 0)
(-0.0278852 0.000105857 0)
(-0.0278876 -9.66715e-05 0)
(-0.0278006 -0.000299178 0)
(-0.0276246 -0.000500572 0)
(-0.0273603 -0.000699745 0)
(-0.0270089 -0.000895578 0)
(-0.0265723 -0.00108694 0)
(-0.0260525 -0.00127268 0)
(-0.0254524 -0.00145166 0)
(-0.0247753 -0.00162272 0)
(-0.0240248 -0.0017847 0)
(-0.0232052 -0.00193647 0)
(-0.0223213 -0.00207687 0)
(-0.0213782 -0.00220479 0)
(-0.0203817 -0.00231912 0)
(-0.0193378 -0.0024188 0)
(-0.0182532 -0.00250279 0)
(-0.017135 -0.00257011 0)
(-0.0159904 -0.00261983 0)
(-0.0148274 -0.00265109 0)
(-0.0136539 -0.0026631 0)
(-0.0124785 -0.00265519 0)
(-0.0113097 -0.00262677 0)
(-0.0101563 -0.00257741 0)
(-0.00902733 -0.00250681 0)
(-0.00793174 -0.00241486 0)
(-0.00687847 -0.00230166 0)
(-0.00587628 -0.0021676 0)
(-0.00493369 -0.00201334 0)
(-0.00405877 -0.00183999 0)
(-0.00325899 -0.00164912 0)
(-0.002541 -0.00144295 0)
(-0.00191036 -0.00122449 0)
(-0.00137125 -0.000997829 0)
(-0.000926059 -0.000768379 0)
(-0.000574898 -0.000543338 0)
(-0.00031508 -0.000332196 0)
(-0.000140422 -0.000147401 0)
(-4.05404e-05 -5.15955e-06 0)
(1.77895e-07 7.36283e-05 0)
(2.18299e-06 6.24488e-05 0)
(-1.33182e-05 -5.17763e-05 0)
(-6.55971e-05 -1.15533e-05 0)
(-0.000177986 0.000143174 0)
(-0.000370826 0.000377903 0)
(-0.000659323 0.000665207 0)
(-0.00105307 0.000983652 0)
(-0.00155723 0.00131667 0)
(-0.00217329 0.00165159 0)
(-0.00289974 0.00197881 0)
(-0.00373271 0.00229113 0)
(-0.00466645 0.00258325 0)
(-0.00569375 0.0028513 0)
(-0.00680627 0.00309255 0)
(-0.00799488 0.00330517 0)
(-0.00924984 0.003488 0)
(-0.010561 0.00364043 0)
(-0.0119181 0.00376227 0)
(-0.0133107 0.00385366 0)
(-0.0147283 0.00391502 0)
(-0.0161606 0.00394697 0)
(-0.0175976 0.00395028 0)
(-0.0190293 0.00392589 0)
(-0.0204461 0.0038748 0)
(-0.0218389 0.00379813 0)
(-0.0231987 0.00369704 0)
(-0.024517 0.00357276 0)
(-0.0257859 0.00342656 0)
(-0.0269977 0.00325974 0)
(-0.0281452 0.00307364 0)
(-0.0292218 0.00286962 0)
(-0.0302214 0.00264906 0)
(-0.0311381 0.00241336 0)
(-0.0319669 0.00216395 0)
(-0.032703 0.00190227 0)
(-0.0333424 0.00162979 0)
(-0.0338815 0.00134799 0)
(-0.0343171 0.00105839 0)
(-0.0346467 0.0007625 0)
(-0.0348685 0.000461883 0)
(-0.034981 0.000158113 0)
(-0.0349835 -0.00014721 0)
(-0.0348756 -0.000452463 0)
(-0.0346577 -0.000756002 0)
(-0.0343309 -0.00105616 0)
(-0.0338967 -0.00135125 0)
(-0.0333571 -0.00163956 0)
(-0.0327151 -0.00191939 0)
(-0.031974 -0.002189 0)
(-0.0311377 -0.00244667 0)
(-0.030211 -0.00269067 0)
(-0.029199 -0.00291928 0)
(-0.0281075 -0.00313081 0)
(-0.0269429 -0.00332358 0)
(-0.0257122 -0.00349595 0)
(-0.024423 -0.00364633 0)
(-0.0230833 -0.00377321 0)
(-0.0217017 -0.00387513 0)
(-0.0202871 -0.00395072 0)
(-0.0188492 -0.00399874 0)
(-0.0173977 -0.00401805 0)
(-0.0159429 -0.00400767 0)
(-0.0144952 -0.00396679 0)
(-0.0130653 -0.00389481 0)
(-0.0116639 -0.00379135 0)
(-0.010302 -0.00365633 0)
(-0.00899013 -0.00348997 0)
(-0.0077389 -0.00329292 0)
(-0.00655842 -0.00306628 0)
(-0.0054583 -0.00281173 0)
(-0.00444738 -0.00253169 0)
(-0.00353351 -0.00222946 0)
(-0.0027233 -0.00190945 0)
(-0.00202169 -0.0015775 0)
(-0.00143165 -0.00124127 0)
(-0.000953624 -0.000910692 0)
(-0.00058504 -0.000598607 0)
(-0.000319631 -0.000321518 0)
(-0.000146767 -0.000100467 0)
(-5.04067e-05 3.79462e-05 0)
(-9.66934e-06 6.06009e-05 0)
(-2.83303e-05 -2.97876e-05 0)
(-0.000128549 7.79009e-05 0)
(-0.000308105 0.000320401 0)
(-0.000586755 0.000658144 0)
(-0.000979069 0.00105894 0)
(-0.00149394 0.00149708 0)
(-0.00213584 0.00195227 0)
(-0.00290555 0.0024087 0)
(-0.00380083 0.00285412 0)
(-0.00481698 0.00327922 0)
(-0.00594732 0.00367695 0)
(-0.00718361 0.00404211 0)
(-0.00851636 0.00437094 0)
(-0.00993518 0.00466086 0)
(-0.011429 0.00491017 0)
(-0.0129862 0.00511792 0)
(-0.0145951 0.00528374 0)
(-0.0162436 0.00540773 0)
(-0.0179199 0.00549035 0)
(-0.0196119 0.00553238 0)
(-0.0213081 0.00553482 0)
(-0.022997 0.00549888 0)
(-0.0246675 0.00542593 0)
(-0.0263088 0.00531744 0)
(-0.0279107 0.005175 0)
(-0.0294633 0.0050003 0)
(-0.0309573 0.00479506 0)
(-0.0323836 0.00456109 0)
(-0.0337341 0.00430023 0)
(-0.0350008 0.00401437 0)
(-0.0361766 0.00370543 0)
(-0.0372549 0.00337537 0)
(-0.0382295 0.00302616 0)
(-0.0390951 0.00265984 0)
(-0.0398468 0.00227845 0)
(-0.0404803 0.00188406 0)
(-0.0409921 0.00147879 0)
(-0.0413794 0.00106478 0)
(-0.0416397 0.000644193 0)
(-0.0417715 0.000219241 0)
(-0.0417739 -0.000207838 0)
(-0.0416466 -0.000634777 0)
(-0.0413901 -0.00105927 0)
(-0.0410054 -0.001479 0)
(-0.0404945 -0.00189161 0)
(-0.0398598 -0.00229472 0)
(-0.0391047 -0.00268594 0)
(-0.0382331 -0.00306287 0)
(-0.0372496 -0.00342311 0)
(-0.0361597 -0.00376425 0)
(-0.0349695 -0.00408393 0)
(-0.0336858 -0.00437978 0)
(-0.0323159 -0.00464949 0)
(-0.0308681 -0.00489081 0)
(-0.0293512 -0.00510155 0)
(-0.0277745 -0.00527962 0)
(-0.0261479 -0.00542303 0)
(-0.024482 -0.00552992 0)
(-0.0227877 -0.00559859 0)
(-0.0210765 -0.00562753 0)
(-0.0193602 -0.00561542 0)
(-0.0176508 -0.00556122 0)
(-0.0159607 -0.00546414 0)
(-0.0143022 -0.00532376 0)
(-0.0126878 -0.00514003 0)
(-0.0111297 -0.00491337 0)
(-0.00964001 -0.00464475 0)
(-0.00823028 -0.00433577 0)
(-0.00691145 -0.00398884 0)
(-0.0056936 -0.0036073 0)
(-0.00458571 -0.00319568 0)
(-0.00359535 -0.00275993 0)
(-0.00272834 -0.00230777 0)
(-0.00198838 -0.00184916 0)
(-0.00137654 -0.00139678 0)
(-0.000890826 -0.000966724 0)
(-0.000525492 -0.000579275 0)
(-0.000270438 -0.00025977 0)
(-0.000110058 -3.95777e-05 0)
(-2.38534e-05 4.30868e-05 0)
(-4.45806e-05 1.01432e-05 0)
(-0.000196354 0.000215128 0)
(-0.000447834 0.000570226 0)
(-0.000817792 0.00103224 0)
(-0.00131961 0.00156523 0)
(-0.00196092 0.00213991 0)
(-0.00274502 0.00273271 0)
(-0.00367161 0.0033249 0)
(-0.00473741 0.00390177 0)
(-0.00593673 0.00445187 0)
(-0.00726187 0.00496644 0)
(-0.0087035 0.00543889 0)
(-0.0102511 0.00586438 0)
(-0.011893 0.00623948 0)
(-0.0136169 0.00656192 0)
(-0.0154101 0.00683035 0)
(-0.0172594 0.00704416 0)
(-0.0191514 0.00720339 0)
(-0.0210728 0.00730852 0)
(-0.0230104 0.00736048 0)
(-0.0249511 0.0073605 0)
(-0.0268821 0.0073101 0)
(-0.0287908 0.00721099 0)
(-0.0306654 0.00706509 0)
(-0.0324941 0.00687443 0)
(-0.0342658 0.00664118 0)
(-0.03597 0.00636762 0)
(-0.0375967 0.0060561 0)
(-0.0391365 0.00570902 0)
(-0.0405804 0.00532888 0)
(-0.0419205 0.00491821 0)
(-0.0431492 0.00447959 0)
(-0.0442596 0.00401565 0)
(-0.0452455 0.00352905 0)
(-0.0461016 0.00302252 0)
(-0.046823 0.00249881 0)
(-0.0474058 0.00196071 0)
(-0.0478465 0.00141107 0)
(-0.0481427 0.000852764 0)
(-0.0482926 0.00028872 0)
(-0.048295 -0.000278095 0)
(-0.0481498 -0.000844675 0)
(-0.0478574 -0.00140797 0)
(-0.0474191 -0.0019649 0)
(-0.046837 -0.00251236 0)
(-0.0461141 -0.0030472 0)
(-0.0452539 -0.00356626 0)
(-0.0442611 -0.00406637 0)
(-0.0431408 -0.00454438 0)
(-0.0418993 -0.00499711 0)
(-0.0405433 -0.00542144 0)
(-0.0390805 -0.00581428 0)
(-0.0375194 -0.00617259 0)
(-0.0358692 -0.00649342 0)
(-0.0341396 -0.00677391 0)
(-0.0323414 -0.00701133 0)
(-0.0304856 -0.00720311 0)
(-0.028584 -0.00734683 0)
(-0.026649 -0.00744031 0)
(-0.0246935 -0.00748159 0)
(-0.0227305 -0.00746904 0)
(-0.0207737 -0.00740132 0)
(-0.0188368 -0.0072775 0)
(-0.0169335 -0.0070971 0)
(-0.0150779 -0.00686014 0)
(-0.0132835 -0.00656727 0)
(-0.0115638 -0.00621984 0)
(-0.00993151 -0.00582004 0)
(-0.00839896 -0.00537106 0)
(-0.00697736 -0.00487727 0)
(-0.00567677 -0.00434449 0)
(-0.00450579 -0.00378027 0)
(-0.0034712 -0.00319426 0)
(-0.00257764 -0.00259869 0)
(-0.0018271 -0.0020089 0)
(-0.00121855 -0.00144401 0)
(-0.000747274 -0.000927682 0)
(-0.000404241 -0.000488917 0)
(-0.000174834 -0.000162902 0)
(-3.93448e-05 8.43226e-06 0)
(-6.13858e-05 6.86444e-05 0)
(-0.000266352 0.000402096 0)
(-0.000592148 0.000895837 0)
(-0.00105641 0.00150423 0)
(-0.00167103 0.00218854 0)
(-0.002442 0.00291656 0)
(-0.00337108 0.00366195 0)
(-0.00445657 0.00440341 0)
(-0.0056939 0.00512394 0)
(-0.00707619 0.0058101 0)
(-0.00859457 0.00645148 0)
(-0.0102386 0.00704009 0)
(-0.0119967 0.00756998 0)
(-0.013856 0.00803689 0)
(-0.0158031 0.00843792 0)
(-0.017824 0.00877127 0)
(-0.0199043 0.00903611 0)
(-0.0220296 0.00923234 0)
(-0.0241851 0.0093605 0)
(-0.0263565 0.00942164 0)
(-0.0285294 0.00941723 0)
(-0.0306897 0.0093491 0)
(-0.0328238 0.00921935 0)
(-0.0349185 0.00903034 0)
(-0.036961 0.00878461 0)
(-0.038939 0.00848486 0)
(-0.0408409 0.00813394 0)
(-0.0426558 0.00773481 0)
(-0.0443731 0.00729051 0)
(-0.0459833 0.00680418 0)
(-0.0474773 0.00627904 0)
(-0.0488468 0.00571836 0)
(-0.0500842 0.00512548 0)
(-0.0511829 0.0045038 0)
(-0.0521366 0.00385677 0)
(-0.0529403 0.0031879 0)
(-0.0535894 0.00250076 0)
(-0.0540803 0.00179896 0)
(-0.0544102 0.00108617 0)
(-0.054577 0.000366134 0)
(-0.0545797 -0.000357385 0)
(-0.0544179 -0.00108055 0)
(-0.0540923 -0.00179949 0)
(-0.0536041 -0.00251028 0)
(-0.0529559 -0.00320896 0)
(-0.0521507 -0.00389155 0)
(-0.0511927 -0.00455403 0)
(-0.0500867 -0.00519238 0)
(-0.0488388 -0.0058026 0)
(-0.0474555 -0.00638067 0)
(-0.0459445 -0.00692264 0)
(-0.0443142 -0.0074246 0)
(-0.0425739 -0.00788273 0)
(-0.0407337 -0.00829329 0)
(-0.0388045 -0.00865271 0)
(-0.0367979 -0.00895755 0)
(-0.0347261 -0.00920458 0)
(-0.0326022 -0.0093908 0)
(-0.0304396 -0.00951349 0)
(-0.0282524 -0.00957025 0)
(-0.0260552 -0.00955904 0)
(-0.0238626 -0.00947828 0)
(-0.0216898 -0.00932687 0)
(-0.0195519 -0.00910426 0)
(-0.017464 -0.00881059 0)
(-0.0154412 -0.00844676 0)
(-0.0134979 -0.00801453 0)
(-0.0116484 -0.00751672 0)
(-0.009906 -0.00695736 0)
(-0.00828307 -0.00634188 0)
(-0.00679082 -0.00567743 0)
(-0.00543892 -0.00497317 0)
(-0.00423528 -0.00424064 0)
(-0.00318564 -0.00349425 0)
(-0.00229322 -0.00275183 0)
(-0.00155825 -0.00203524 0)
(-0.000977405 -0.00137106 0)
(-0.000543114 -0.000791324 0)
(-0.00024205 -0.000334157 0)
(-5.54526e-05 -4.40604e-05 0)
(-7.8303e-05 0.000145841 0)
(-0.000336804 0.000639521 0)
(-0.000737685 0.00129868 0)
(-0.00129746 0.00207618 0)
(-0.0020264 0.00293128 0)
(-0.00292864 0.00382951 0)
(-0.00400414 0.00474225 0)
(-0.00524953 0.00564599 0)
(-0.00665875 0.00652168 0)
(-0.00822353 0.00735409 0)
(-0.00993375 0.00813122 0)
(-0.0117778 0.00884379 0)
(-0.0137428 0.00948476 0)
(-0.0158149 0.010049 0)
(-0.0179795 0.0105331 0)
(-0.0202214 0.0109346 0)
(-0.0225253 0.0112526 0)
(-0.0248754 0.0114869 0)
(-0.027256 0.0116379 0)
(-0.0296514 0.0117069 0)
(-0.0320462 0.0116956 0)
(-0.0344253 0.0116061 0)
(-0.036774 0.0114411 0)
(-0.0390778 0.0112032 0)
(-0.041323 0.0108955 0)
(-0.0434964 0.0105214 0)
(-0.0455854 0.0100843 0)
(-0.047578 0.00958788 0)
(-0.049463 0.00903576 0)
(-0.05123 0.00843184 0)
(-0.052869 0.00778006 0)
(-0.0543712 0.00708447 0)
(-0.0557283 0.00634917 0)
(-0.0569331 0.00557836 0)
(-0.0579788 0.0047763 0)
(-0.05886 0.00394731 0)
(-0.0595716 0.00309581 0)
(-0.0601098 0.00222625 0)
(-0.0604716 0.00134319 0)
(-0.0606547 0.000451207 0)
(-0.0606579 -0.000445017 0)
(-0.0604809 -0.00134076 0)
(-0.0601244 -0.00223123 0)
(-0.0595899 -0.00311161 0)
(-0.0588798 -0.003977 0)
(-0.0579978 -0.0048225 0)
(-0.0569481 -0.00564316 0)
(-0.0557363 -0.00643405 0)
(-0.0543685 -0.00719022 0)
(-0.0528522 -0.00790675 0)
(-0.0511955 -0.00857879 0)
(-0.0494075 -0.00920155 0)
(-0.0474984 -0.00977034 0)
(-0.045479 -0.0102806 0)
(-0.0433611 -0.0107279 0)
(-0.0411572 -0.0111082 0)
(-0.0388806 -0.0114174 0)
(-0.0365453 -0.0116519 0)
(-0.034166 -0.0118085 0)
(-0.0317578 -0.0118843 0)
(-0.0293363 -0.0118767 0)
(-0.0269175 -0.011784 0)
(-0.0245177 -0.0116049 0)
(-0.0221532 -0.0113388 0)
(-0.0198402 -0.0109858 0)
(-0.0175951 -0.0105473 0)
(-0.0154335 -0.0100253 0)
(-0.0133709 -0.00942341 0)
(-0.0114215 -0.00874642 0)
(-0.00959918 -0.00800088 0)
(-0.00791611 -0.00719523 0)
(-0.00638324 -0.00634021 0)
(-0.00500968 -0.00544916 0)
(-0.0038025 -0.00453856 0)
(-0.00276634 -0.00362847 0)
(-0.00190297 -0.00274318 0)
(-0.00121071 -0.00191176 0)
(-0.000683659 -0.00116866 0)
(-0.000309943 -0.000554216 0)
(-7.17262e-05 -0.000114578 0)
(-9.50568e-05 0.000241543 0)
(-0.000406617 0.000927284 0)
(-0.000882284 0.00177898 0)
(-0.00153757 0.00274872 0)
(-0.00238108 0.00379438 0)
(-0.00341498 0.00487983 0)
(-0.00463727 0.00597459 0)
(-0.00604274 0.00705331 0)
(-0.00762366 0.0080952 0)
(-0.00937021 0.00908341 0)
(-0.0112709 0.0100045 0)
(-0.0133128 0.010848 0)
(-0.0154818 0.0116059 0)
(-0.0177629 0.0122722 0)
(-0.0201404 0.0128428 0)
(-0.0225981 0.0133151 0)
(-0.0251193 0.0136876 0)
(-0.0276874 0.0139602 0)
(-0.0302854 0.0141333 0)
(-0.0328969 0.0142083 0)
(-0.0355053 0.0141873 0)
(-0.0380943 0.0140726 0)
(-0.0406484 0.0138673 0)
(-0.0431522 0.0135746 0)
(-0.0455909 0.0131982 0)
(-0.0479505 0.012742 0)
(-0.0502175 0.0122101 0)
(-0.0523792 0.0116069 0)
(-0.0544235 0.0109367 0)
(-0.0563392 0.0102042 0)
(-0.0581158 0.00941421 0)
(-0.0597438 0.00857144 0)
(-0.0612143 0.0076809 0)
(-0.0625196 0.00674763 0)
(-0.0636526 0.00577675 0)
(-0.0646071 0.00477348 0)
(-0.0653782 0.00374313 0)
(-0.0659614 0.00269108 0)
(-0.0663536 0.00162279 0)
(-0.0665525 0.000543817 0)
(-0.0665567 -0.00054023 0)
(-0.0663659 -0.00162365 0)
(-0.0659807 -0.0027007 0)
(-0.0654029 -0.00376554 0)
(-0.064635 -0.00481232 0)
(-0.0636809 -0.00583512 0)
(-0.0625451 -0.006828 0)
(-0.0612336 -0.00778504 0)
(-0.059753 -0.00870029 0)
(-0.0581111 -0.00956787 0)
(-0.0563167 -0.0103819 0)
(-0.0543796 -0.0111368 0)
(-0.0523104 -0.0118268 0)
(-0.0501209 -0.0124464 0)
(-0.0478235 -0.0129906 0)
(-0.0454317 -0.0134542 0)
(-0.0429597 -0.0138326 0)
(-0.0404223 -0.0141215 0)
(-0.0378352 -0.014317 0)
(-0.0352146 -0.0144156 0)
(-0.0325771 -0.0144146 0)
(-0.0299398 -0.0143116 0)
(-0.02732 -0.0141053 0)
(-0.0247352 -0.013795 0)
(-0.0222029 -0.0133811 0)
(-0.0197403 -0.0128649 0)
(-0.0173644 -0.0122492 0)
(-0.0150917 -0.011538 0)
(-0.0129378 -0.010737 0)
(-0.0109175 -0.00985377 0)
(-0.00904435 -0.00889812 0)
(-0.00733062 -0.0078822 0)
(-0.00578678 -0.00682108 0)
(-0.00442138 -0.00573308 0)
(-0.00324063 -0.00464031 0)
(-0.00224805 -0.00356914 0)
(-0.00144377 -0.00255071 0)
(-0.000823694 -0.00162141 0)
(-0.0003774 -0.000823115 0)
(-8.78846e-05 -0.000202987 0)
(-0.000111487 0.000355376 0)
(-0.000475147 0.00126475 0)
(-0.00102464 0.00233618 0)
(-0.00177461 0.0035215 0)
(-0.00273208 0.00477773 0)
(-0.00389718 0.00606753 0)
(-0.00526587 0.00735899 0)
(-0.00683098 0.00862528 0)
(-0.00858295 0.00984411 0)
(-0.0105103 0.0109973 0)
(-0.0126001 0.01207 0)
(-0.0148379 0.0130508 0)
(-0.0172085 0.0139307 0)
(-0.0196955 0.0147031 0)
(-0.0222822 0.0153631 0)
(-0.0249511 0.0159079 0)
(-0.0276847 0.0163358 0)
(-0.0304651 0.0166463 0)
(-0.0332746 0.0168403 0)
(-0.0360955 0.0169191 0)
(-0.0389104 0.016885 0)
(-0.0417022 0.0167409 0)
(-0.0444542 0.0164902 0)
(-0.0471502 0.0161368 0)
(-0.0497748 0.0156848 0)
(-0.0523129 0.0151389 0)
(-0.0547504 0.0145037 0)
(-0.0570737 0.0137845 0)
(-0.0592702 0.0129864 0)
(-0.0613279 0.0121148 0)
(-0.0632358 0.0111753 0)
(-0.0649838 0.0101736 0)
(-0.0665625 0.00911559 0)
(-0.0679637 0.00800715 0)
(-0.0691798 0.00685435 0)
(-0.0702045 0.00566335 0)
(-0.0710324 0.00444041 0)
(-0.0716589 0.00319189 0)
(-0.0720805 0.00192424 0)
(-0.0722949 0.000643996 0)
(-0.0723006 -0.000642199 0)
(-0.0720972 -0.00192763 0)
(-0.0716854 -0.00320551 0)
(-0.0710671 -0.00446896 0)
(-0.070245 -0.00571107 0)
(-0.0692229 -0.00692488 0)
(-0.068006 -0.0081034 0)
(-0.0666003 -0.00923962 0)
(-0.0650129 -0.0103266 0)
(-0.0632519 -0.0113573 0)
(-0.0613268 -0.012325 0)
(-0.0592478 -0.0132229 0)
(-0.0570261 -0.0140444 0)
(-0.0546742 -0.014783 0)
(-0.0522052 -0.0154328 0)
(-0.0496333 -0.0159878 0)
(-0.0469736 -0.0164426 0)
(-0.0442417 -0.016792 0)
(-0.0414542 -0.0170316 0)
(-0.0386282 -0.0171574 0)
(-0.0357814 -0.0171661 0)
(-0.0329317 -0.0170551 0)
(-0.0300976 -0.0168228 0)
(-0.0272976 -0.0164684 0)
(-0.0245502 -0.0159924 0)
(-0.0218739 -0.0153964 0)
(-0.0192867 -0.0146836 0)
(-0.0168063 -0.0138585 0)
(-0.0144495 -0.0129278 0)
(-0.0122324 -0.0119 0)
(-0.01017 -0.010786 0)
(-0.00827567 -0.00959944 0)
(-0.00656156 -0.00835689 0)
(-0.00503779 -0.00707841 0)
(-0.00371234 -0.00578787 0)
(-0.00259056 -0.00451342 0)
(-0.0016745 -0.00328792 0)
(-0.000961909 -0.00214924 0)
(-0.000443774 -0.00114037 0)
(-0.000103766 -0.000308965 0)
(-0.000127511 0.000486872 0)
(-0.000542061 0.00165097 0)
(-0.00116403 0.00296923 0)
(-0.00200739 0.00439353 0)
(-0.00307762 0.00588049 0)
(-0.0043729 0.00739191 0)
(-0.00588707 0.00889483 0)
(-0.00761091 0.0103612 0)
(-0.00953298 0.0117676 0)
(-0.0116401 0.0130946 0)
(-0.0139175 0.0143263 0)
(-0.0163496 0.0154504 0)
(-0.0189195 0.016457 0)
(-0.0216099 0.0173388 0)
(-0.0244026 0.0180906 0)
(-0.0272792 0.0187092 0)
(-0.030221 0.0191926 0)
(-0.0332093 0.0195404 0)
(-0.0362252 0.0197534 0)
(-0.0392502 0.0198333 0)
(-0.0422659 0.0197827 0)
(-0.0452543 0.0196048 0)
(-0.048198 0.0193034 0)
(-0.05108 0.0188831 0)
(-0.053884 0.0183487 0)
(-0.0565943 0.0177053 0)
(-0.0591959 0.0169586 0)
(-0.0616748 0.0161143 0)
(-0.0640175 0.0151786 0)
(-0.0662116 0.0141577 0)
(-0.0682455 0.013058 0)
(-0.0701086 0.0118861 0)
(-0.0717911 0.0106489 0)
(-0.0732842 0.00935313 0)
(-0.0745803 0.00800591 0)
(-0.0756725 0.00661437 0)
(-0.0765551 0.00518577 0)
(-0.0772234 0.00372748 0)
(-0.0776737 0.002247 0)
(-0.0779035 0.000751929 0)
(-0.0779113 -0.000750042 0)
(-0.0776967 -0.00225112 0)
(-0.0772603 -0.00374341 0)
(-0.0766041 -0.00521896 0)
(-0.0757309 -0.00666975 0)
(-0.0746448 -0.0080877 0)
(-0.0733511 -0.0094647 0)
(-0.071856 -0.0107927 0)
(-0.070167 -0.0120635 0)
(-0.0682927 -0.0132691 0)
(-0.0662429 -0.0144017 0)
(-0.0640281 -0.0154533 0)
(-0.0616605 -0.0164165 0)
(-0.0591527 -0.0172837 0)
(-0.0565187 -0.0180479 0)
(-0.0537733 -0.0187023 0)
(-0.0509323 -0.0192406 0)
(-0.0480122 -0.0196571 0)
(-0.0450303 -0.0199464 0)
(-0.0420046 -0.020104 0)
(-0.0389537 -0.0201261 0)
(-0.0358965 -0.0200098 0)
(-0.0328525 -0.0197531 0)
(-0.0298411 -0.0193553 0)
(-0.0268821 -0.0188167 0)
(-0.0239948 -0.0181393 0)
(-0.0211986 -0.0173266 0)
(-0.0185122 -0.0163837 0)
(-0.0159539 -0.0153181 0)
(-0.0135409 -0.014139 0)
(-0.0112897 -0.0128587 0)
(-0.00921516 -0.0114919 0)
(-0.00733101 -0.0100567 0)
(-0.00564912 -0.00857456 0)
(-0.0041793 -0.00707099 0)
(-0.00292884 -0.00557564 0)
(-0.00190176 -0.00412276 0)
(-0.00109762 -0.00275137 0)
(-0.00050874 -0.0015052 0)
(-0.000119288 -0.000432098 0)
(-0.0001431 0.000635527 0)
(-0.000607234 0.00208488 0)
(-0.00130016 0.00367678 0)
(-0.00223533 0.00536348 0)
(-0.00341684 0.00710139 0)
(-0.00484091 0.00885182 0)
(-0.00649929 0.010581 0)
(-0.00838068 0.0122601 0)
(-0.0104717 0.0138646 0)
(-0.0127572 0.0153741 0)
(-0.015221 0.016772 0)
(-0.0178457 0.018045 0)
(-0.0206132 0.0191826 0)
(-0.0235046 0.020177 0)
(-0.0265008 0.0210225 0)
(-0.0295822 0.0217156 0)
(-0.032729 0.0222543 0)
(-0.0359213 0.0226383 0)
(-0.0391396 0.0228683 0)
(-0.0423642 0.0229463 0)
(-0.045576 0.0228752 0)
(-0.0487562 0.0226588 0)
(-0.0518865 0.0223013 0)
(-0.0549492 0.0218079 0)
(-0.0579273 0.0211841 0)
(-0.0608044 0.0204357 0)
(-0.0635649 0.0195692 0)
(-0.0661941 0.0185911 0)
(-0.0686781 0.0175084 0)
(-0.0710039 0.0163281 0)
(-0.0731595 0.0150578 0)
(-0.0751336 0.0137049 0)
(-0.0769163 0.0122771 0)
(-0.0784983 0.0107824 0)
(-0.0798715 0.0092288 0)
(-0.081029 0.00762446 0)
(-0.0819648 0.00597769 0)
(-0.0826738 0.00429695 0)
(-0.0831524 0.0025908 0)
(-0.0833978 0.000867943 0)
(-0.0834084 -0.000862819 0)
(-0.0831839 -0.00259257 0)
(-0.0827248 -0.00431228 0)
(-0.0820331 -0.00601286 0)
(-0.0811118 -0.00768512 0)
(-0.0799651 -0.00931984 0)
(-0.0785984 -0.0109077 0)
(-0.0770183 -0.0124396 0)
(-0.0752324 -0.0139061 0)
(-0.0732498 -0.0152981 0)
(-0.0710803 -0.0166066 0)
(-0.0687354 -0.0178225 0)
(-0.0662271 -0.0189373 0)
(-0.0635691 -0.0199425 0)
(-0.0607756 -0.02083 0)
(-0.0578622 -0.021592 0)
(-0.0548453 -0.0222214 0)
(-0.0517421 -0.0227115 0)
(-0.0485707 -0.0230564 0)
(-0.0453499 -0.0232508 0)
(-0.0420991 -0.0232904 0)
(-0.0388382 -0.0231718 0)
(-0.0355877 -0.0228929 0)
(-0.0323679 -0.0224527 0)
(-0.0291996 -0.0218516 0)
(-0.0261034 -0.0210917 0)
(-0.0230998 -0.0201767 0)
(-0.0202087 -0.0191125 0)
(-0.0174497 -0.0179069 0)
(-0.0148415 -0.0165704 0)
(-0.0124019 -0.0151158 0)
(-0.0101475 -0.0135593 0)
(-0.00809368 -0.0119202 0)
(-0.0062541 -0.0102212 0)
(-0.0046405 -0.00848917 0)
(-0.00326216 -0.00675507 0)
(-0.00212507 -0.00505431 0)
(-0.00123057 -0.00342677 0)
(-0.000572194 -0.0019167 0)
(-0.000134428 -0.000571938 0)
(-0.000158258 0.000800842 0)
(-0.000670679 0.00256533 0)
(-0.001433 0.00445741 0)
(-0.00245834 0.00642979 0)
(-0.00374948 0.00843892 0)
(-0.00530078 0.0104458 0)
(-0.00710193 0.0124163 0)
(-0.00913954 0.0143207 0)
(-0.0113982 0.0161338 0)
(-0.0138609 0.0178346 0)
(-0.0165096 0.0194057 0)
(-0.0193255 0.020833 0)
(-0.0222889 0.0221057 0)
(-0.0253796 0.0232154 0)
(-0.0285772 0.0241562 0)
(-0.0318609 0.0249244 0)
(-0.0352098 0.0255179 0)
(-0.0386033 0.0259365 0)
(-0.0420205 0.026181 0)
(-0.0454412 0.0262539 0)
(-0.0488453 0.0261583 0)
(-0.0522131 0.0258984 0)
(-0.0555258 0.0254793 0)
(-0.0587649 0.0249065 0)
(-0.0619126 0.0241863 0)
(-0.0649521 0.0233254 0)
(-0.0678671 0.0223309 0)
(-0.0706425 0.0212102 0)
(-0.0732637 0.0199713 0)
(-0.0757173 0.0186221 0)
(-0.0779908 0.0171709 0)
(-0.0800727 0.0156264 0)
(-0.0819525 0.0139973 0)
(-0.0836208 0.0122924 0)
(-0.0850691 0.0105209 0)
(-0.0862902 0.00869196 0)
(-0.0872778 0.00681504 0)
(-0.0880269 0.00489968 0)
(-0.0885336 0.00295556 0)
(-0.0887948 0.000992503 0)
(-0.0888091 -0.000979527 0)
(-0.0885759 -0.00295045 0)
(-0.088096 -0.00491008 0)
(-0.0873711 -0.00684813 0)
(-0.0864045 -0.00875421 0)
(-0.0852003 -0.0106179 0)
(-0.0837642 -0.0124287 0)
(-0.0821029 -0.0141763 0)