/*--------------------------------*- C++ -*----------------------------------*\
| =========                 |                                                 |
| \\      /  F ield         | OpenFOAM: The Open Source CFD Toolbox           |
|  \\    /   O peration     | Version:  4.1                                   |
|   \\  /    A nd           | Web:      www.OpenFOAM.org                      |
|    \\/     M anipulation  |                                                 |
\*---------------------------------------------------------------------------*/
FoamFile
{
    version     2.0;
    format      ascii;
    class       volScalarField;
    location    "9e-05";
    object      p;
}
// * * * * * * * * * * * * * * * * * * * * * * * * * * * * * * * * * * * * * //

dimensions      [1 -1 -2 0 0 0 0];

internalField   nonuniform List<scalar> 
1681
(
100000
100000
100000
100000
100001
100001
100001
100002
100002
100003
100004
100004
100005
100006
100007
100008
100009
100009
100010
100011
100012
100013
100014
100015
100016
100017
100018
100019
100020
100021
100021
100022
100023
100023
100024
100024
100025
100025
100025
100025
100025
99999.9
100000
100000
100000
100001
100001
100001
100002
100002
100003
100004
100004
100005
100006
100007
100008
100008
100009
100010
100011
100012
100013
100014
100015
100016
100017
100018
100019
100020
100021
100021
100022
100023
100023
100024
100024
100025
100025
100025
100025
100026
99999.8
99999.9
100000
100000
100000
100001
100001
100002
100002
100003
100004
100004
100005
100006
100007
100008
100008
100009
100010
100011
100012
100013
100014
100015
100016
100017
100018
100019
100020
100021
100022
100022
100023
100024
100024
100025
100025
100025
100025
100026
100026
99999.6
99999.6
99999.8
100000
100000
100001
100001
100002
100002
100003
100003
100004
100005
100006
100007
100007
100008
100009
100010
100011
100012
100013
100014
100015
100016
100017
100018
100019
100020
100021
100022
100022
100023
100024
100024
100025
100025
100025
100026
100026
100026
99999.3
99999.4
99999.5
99999.7
100000
100000
100001
100001
100002
100002
100003
100004
100005
100005
100006
100007
100008
100009
100010
100011
100012
100013
100014
100015
100016
100017
100018
100019
100020
100021
100022
100023
100023
100024
100025
100025
100025
100026
100026
100026
100026
99999
99999
99999.1
99999.3
99999.6
100000
100000
100001
100001
100002
100003
100004
100004
100005
100006
100007
100008
100009
100010
100011
100012
100013
100014
100015
100017
100018
100019
100020
100020
100021
100022
100023
100024
100024
100025
100025
100026
100026
100026
100027
100027
99998.5
99998.5
99998.7
99998.9
99999.2
99999.6
100000
100001
100001
100002
100003
100003
100004
100005
100006
100007
100008
100009
100010
100011
100012
100013
100014
100016
100017
100018
100019
100020
100021
100022
100023
100023
100024
100025
100025
100026
100026
100027
100027
100027
100027
99997.9
99998
99998.1
99998.4
99998.7
99999.1
99999.5
100000
100001
100001
100002
100003
100004
100005
100006
100007
100008
100009
100010
100011
100012
100013
100015
100016
100017
100018
100019
100020
100021
100022
100023
100024
100025
100025
100026
100026
100027
100027
100028
100028
100028
99997.3
99997.3
99997.5
99997.7
99998.1
99998.5
99999
99999.5
100000
100001
100002
100002
100003
100004
100005
100006
100007
100009
100010
100011
100012
100013
100015
100016
100017
100018
100019
100020
100021
100022
100023
100024
100025
100026
100026
100027
100028
100028
100028
100028
100028
99996.5
99996.6
99996.8
99997.1
99997.4
99997.8
99998.3
99998.9
99999.6
100000
100001
100002
100003
100004
100005
100006
100007
100008
100010
100011
100012
100013
100015
100016
100017
100018
100020
100021
100022
100023
100024
100025
100026
100026
100027
100028
100028
100029
100029
100029
100029
99995.7
99995.8
99996
99996.3
99996.6
99997.1
99997.6
99998.2
99998.9
99999.7
100001
100001
100002
100003
100005
100006
100007
100008
100009
100011
100012
100013
100015
100016
100017
100019
100020
100021
100022
100023
100024
100025
100026
100027
100028
100029
100029
100030
100030
100030
100030
99994.9
99995
99995.1
99995.4
99995.8
99996.2
99996.8
99997.4
99998.2
99999
99999.8
100001
100002
100003
100004
100005
100007
100008
100009
100011
100012
100013
100015
100016
100018
100019
100020
100022
100023
100024
100025
100026
100027
100028
100029
100029
100030
100031
100031
100031
100031
99993.9
99994
99994.2
99994.4
99994.8
99995.3
99995.9
99996.6
99997.3
99998.2
99999.1
100000
100001
100002
100004
100005
100006
100008
100009
100010
100012
100013
100015
100016
100018
100019
100021
100022
100023
100025
100026
100027
100028
100029
100030
100031
100031
100032
100032
100032
100032
99992.7
99992.9
99993.1
99993.4
99993.8
99994.3
99994.9
99995.6
99996.4
99997.3
99998.3
99999.3
100000
100002
100003
100004
100006
100007
100009
100010
100012
100013
100015
100017
100018
100020
100021
100023
100024
100025
100027
100028
100029
100030
100031
100032
100032
100033
100033
100034
100034
99991.4
99991.6
99991.9
99992.2
99992.6
99993.2
99993.8
99994.6
99995.4
99996.3
99997.4
99998.5
99999.7
100001
100002
100004
100005
100007
100008
100010
100012
100013
100015
100017
100018
100020
100022
100023
100025
100026
100028
100029
100030
100031
100032
100033
100034
100034
100035
100035
100035
99990.1
99990.3
99990.6
99990.9
99991.4
99992
99992.6
99993.4
99994.3
99995.3
99996.3
99997.5
99998.8
100000
100002
100003
100005
100006
100008
100010
100011
100013
100015
100017
100019
100020
100022
100024
100026
100027
100029
100030
100031
100032
100033
100034
100035
100036
100036
100037
100037
99988.8
99988.9
99989.2
99989.5
99990
99990.6
99991.3
99992.1
99993.1
99994.1
99995.2
99996.5
99997.8
99999.3
100001
100002
100004
100006
100008
100009
100011
100013
100015
100017
100019
100021
100023
100025
100026
100028
100030
100031
100033
100034
100035
100036
100037
100037
100038
100038
100038
99987.3
99987.4
99987.7
99988.1
99988.6
99989.2
99989.9
99990.8
99991.8
99992.8
99994
99995.4
99996.8
99998.3
99999.9
100002
100003
100005
100007
100009
100011
100013
100015
100017
100019
100021
100023
100025
100027
100029
100031
100032
100034
100035
100037
100038
100039
100039
100040
100040
100040
99985.6
99985.8
99986
99986.4
99987
99987.6
99988.4
99989.3
99990.3
99991.5
99992.7
99994.1
99995.6
99997.2
99998.9
100001
100003
100005
100007
100009
100011
100013
100015
100018
100020
100022
100024
100026
100028
100030
100032
100034
100036
100037
100038
100039
100040
100041
100042
100042
100042
99983.9
99984
99984.3
99984.7
99985.3
99985.9
99986.8
99987.7
99988.8
99990
99991.3
99992.8
99994.3
99996
99997.8
99999.7
100002
100004
100006
100008
100011
100013
100015
100018
100020
100023
100025
100027
100029
100032
100034
100035
100037
100039
100040
100042
100043
100043
100044
100045
100045
99982
99982.1
99982.4
99982.8
99983.4
99984.1
99985
99986
99987.1
99988.4
99989.7
99991.3
99992.9
99994.7
99996.6
99998.7
100001
100003
100005
100008
100010
100013
100015
100018
100021
100023
100026
100028
100031
100033
100035
100037
100039
100041
100042
100044
100045
100046
100047
100047
100047
99979.9
99980.1
99980.4
99980.8
99981.4
99982.2
99983
99984.1
99985.3
99986.6
99988.1
99989.7
99991.4
99993.3
99995.3
99997.5
99999.7
100002
100005
100007
100010
100013
100015
100018
100021
100024
100027
100029
100032
100034
100037
100039
100041
100043
100045
100046
100047
100049
100049
100050
100050
99977.7
99977.9
99978.2
99978.7
99979.3
99980.1
99981
99982.1
99983.3
99984.7
99986.2
99987.9
99989.8
99991.8
99993.9
99996.2
99998.6
100001
100004
100007
100009
100012
100015
100018
100021
100024
100027
100030
100033
100036
100039
100041
100043
100045
100047
100049
100050
100051
100052
100053
100053
99975.4
99975.5
99975.9
99976.3
99977
99977.8
99978.8
99979.9
99981.2
99982.6
99984.2
99986
99988
99990.1
99992.3
99994.7
99997.3
100000
100003
100006
100009
100012
100015
100019
100022
100025
100028
100032
100035
100038
100041
100043
100046
100048
100050
100052
100053
100055
100056
100056
100056
99972.9
99973
99973.4
99973.9
99974.5
99975.4
99976.4
99977.6
99978.9
99980.4
99982.1
99984
99986
99988.2
99990.6
99993.1
99995.8
99998.7
100002
100005
100008
100012
100015
100019
100022
100026
100029
100033
100036
100040
100043
100046
100048
100051
100053
100055
100057
100058
100059
100060
100060
99970.2
99970.3
99970.7
99971.2
99971.9
99972.8
99973.8
99975.1
99976.5
99978
99979.8
99981.7
99983.9
99986.2
99988.7
99991.4
99994.2
99997.3
100001
100004
100008
100011
100015
100019
100023
100027
100031
100034
100038
100042
100045
100048
100051
100054
100056
100059
100060
100062
100063
100064
100064
99967.3
99967.5
99967.8
99968.4
99969.1
99970
99971.1
99972.4
99973.8
99975.5
99977.3
99979.3
99981.5
99983.9
99986.6
99989.4
99992.4
99995.7
99999.2
100003
100007
100011
100015
100019
100023
100028
100032
100036
100040
100044
100048
100051
100054
100057
100060
100062
100064
100066
100067
100068
100069
99964.3
99964.4
99964.8
99965.4
99966.1
99967.1
99968.2
99969.5
99971
99972.7
99974.6
99976.7
99979
99981.5
99984.2
99987.2
99990.4
99993.9
99997.6
100001
100006
100010
100014
100019
100024
100028
100033
100038
100042
100046
100050
100054
100058
100061
100064
100067
100069
100071
100072
100073
100073
99961
99961.2
99961.6
99962.2
99963
99964
99965.1
99966.5
99968
99969.8
99971.7
99973.9
99976.2
99978.8
99981.7
99984.8
99988.2
99991.8
99995.7
100000
100004
100009
100014
100019
100024
100029
100034
100039
100044
100049
100053
100058
100062
100065
100068
100071
100074
100076
100077
100078
100079
99957.6
99957.8
99958.2
99958.8
99959.6
99960.6
99961.8
99963.2
99964.8
99966.6
99968.6
99970.8
99973.3
99975.9
99978.9
99982.1
99985.6
99989.5
99993.6
99998.1
100003
100008
100013
100019
100025
100030
100036
100041
100047
100052
100057
100061
100066
100069
100073
100076
100079
100081
100083
100084
100085
99954
99954.2
99954.6
99955.3
99956.1
99957.1
99958.4
99959.8
99961.4
99963.2
99965.3
99967.5
99970
99972.8
99975.8
99979.1
99982.7
99986.7
99991.2
99996
100001
100007
100013
100019
100025
100031
100037
100043
100049
100055
100060
100065
100070
100074
100078
100081
100084
100087
100089
100090
100091
99950.1
99950.3
99950.8
99951.5
99952.4
99953.5
99954.7
99956.2
99957.8
99959.6
99961.7
99964
99966.6
99969.4
99972.4
99975.8
99979.5
99983.6
99988.3
99993.5
99999.2
100005
100012
100018
100025
100032
100039
100046
100052
100058
100064
100070
100075
100079
100083
100087
100090
100093
100096
100097
100098
99946
99946.3
99946.8
99947.5
99948.5
99949.6
99950.9
99952.3
99954
99955.8
99957.9
99960.3
99962.9
99965.7
99968.8
99972.1
99975.8
99980
99984.9
99990.5
99996.7
100003
100011
100018
100025
100033
100040
100048
100055
100062
100069
100075
100080
100085
100089
100093
100097
100100
100103
100105
100106
99941.6
99941.9
99942.5
99943.4
99944.4
99945.6
99946.9
99948.3
99949.9
99951.8
99953.9
99956.3
99959
99961.8
99964.8
99968
99971.5
99975.7
99980.8
99986.8
99993.7
100001
100009
100017
100026
100034
100042
100051
100059
100067
100074
100080
100086
100091
100095
100100
100104
100108
100111
100114
100115
99936.9
99937.3
99938.1
99939.1
99940.2
99941.4
99942.7
99944.1
99945.6
99947.4
99949.6
99952.1
99955
99957.8
99960.7
99963.5
99966.7
99970.6
99975.7
99982.2
99990
99998.6
100008
100017
100026
100035
100044
100053
100063
100072
100080
100087
100092
100097
100102
100106
100111
100116
100121
100124
100126
99931.8
99932.4
99933.4
99934.6
99935.9
99937.2
99938.5
99939.7
99941.1
99942.8
99944.9
99947.6
99950.8
99953.9
99956.4
99958.7
99961.1
99964.4
99969.3
99976.4
99985.4
99995.5
100006
100016
100026
100035
100045
100056
100067
100077
100087
100094
100100
100104
100108
100112
100118
100124
100131
100136
100139
99926.2
99927
99928.4
99930
99931.6
99933
99934.2
99935.3
99936.3
99937.6
99939.6
99942.6
99946.9
99950.5
99952.6
99953.6
99954.5
99956.5
99960.8
99968.7
99979.6
99992
100005
100016
100026
100035
100046
100058
100072
100084
100095
100103
100108
100111
100114
100118
100124
100133
100142
100150
100154
99919.6
99921.1
99923.3
99925.5
99927.5
99929
99930.1
99930.8
99931.3
99931.9
99933.3
99936.7
99943.5
99948.4
99949.6
99948.7
99947
99946.3
99948.9
99958.1
99972.3
99988.3
100004
100018
100027
100034
100045
100060
100077
100093
100107
100115
100118
100118
100119
100121
100127
100140
100156
100167
100173
99911.7
99914.6
99918.1
99921.2
99923.7
99925.4
99926.4
99926.5
99926
99925.2
99925.2
99928
99941.5
99949.6
99948.9
99944.4
99938.3
99932.8
99930.9
99942.8
99963.1
99984.8
100006
100024
100030
100030
100041
100060
100082
100104
100125
100132
100130
100126
100122
100120
100125
100145
100173
100191
100198
99901
99907.3
99913.1
99917.6
99920.8
99922.7
99923.4
99922.8
99920.9
99917.7
99914
99912.7
99943.5
99957.3
99951.9
99941.6
99929
99915.1
99902.7
99921.1
99952.1
99982.1
100011
100038
100036
100019
100031
100058
100087
100118
100151
100157
100146
100133
100122
100113
100111
100145
100197
100222
100230
99884.4
99900
99909.4
99915.3
99919.1
99921.1
99921.6
99920.4
99916.9
99909.7
99897.1
99869.8
99964.7
99981.4
99961.3
99941.5
99919.8
99891.6
99841.6
99884.1
99940.3
99982.3
100024
100082
100050
99978.2
100005
100052
100092
100139
100209
100195
100164
100139
100118
100096
100060
100133
100251
100269
100273
)
;

boundaryField
{
    movingWall
    {
        type            zeroGradient;
    }
    fixedWalls
    {
        type            zeroGradient;
    }
    frontAndBack
    {
        type            empty;
    }
}


// ************************************************************************* //
