/*--------------------------------*- C++ -*----------------------------------*\
| =========                 |                                                 |
| \\      /  F ield         | OpenFOAM: The Open Source CFD Toolbox           |
|  \\    /   O peration     | Version:  4.1                                   |
|   \\  /    A nd           | Web:      www.OpenFOAM.org                      |
|    \\/     M anipulation  |                                                 |
\*---------------------------------------------------------------------------*/
FoamFile
{
    version     2.0;
    format      ascii;
    class       volVectorField;
    location    "9e-05";
    object      U;
}
// * * * * * * * * * * * * * * * * * * * * * * * * * * * * * * * * * * * * * //

dimensions      [0 1 -1 0 0 0 0];

internalField   nonuniform List<vector> 
1681
(
(-0.000433321 0.00050038 0)
(-0.00134925 0.000530292 0)
(-0.00225955 0.000531029 0)
(-0.00316821 0.000527185 0)
(-0.00406896 0.000519684 0)
(-0.00495542 0.000508724 0)
(-0.00582168 0.000494569 0)
(-0.00666238 0.000477452 0)
(-0.00747257 0.000457551 0)
(-0.0082476 0.000434996 0)
(-0.00898297 0.000409882 0)
(-0.0096743 0.00038229 0)
(-0.0103173 0.0003523 0)
(-0.0109078 0.000319996 0)
(-0.0114417 0.000285476 0)
(-0.0119152 0.000248855 0)
(-0.0123243 0.000210271 0)
(-0.0126658 0.000169884 0)
(-0.0129362 0.000127879 0)
(-0.0131327 8.44672e-05 0)
(-0.0132528 3.98834e-05 0)
(-0.0132944 -5.6131e-06 0)
(-0.0132559 -5.17407e-05 0)
(-0.0131361 -9.81978e-05 0)
(-0.0129346 -0.000144666 0)
(-0.0126514 -0.000190811 0)
(-0.0122871 -0.000236292 0)
(-0.0118432 -0.000280757 0)
(-0.0113215 -0.000323858 0)
(-0.0107248 -0.000365244 0)
(-0.0100561 -0.000404573 0)
(-0.00931951 -0.000441515 0)
(-0.00851936 -0.000475753 0)
(-0.00766073 -0.000506993 0)
(-0.00674918 -0.000534958 0)
(-0.00579076 -0.000559403 0)
(-0.00479195 -0.000580106 0)
(-0.00375958 -0.000596872 0)
(-0.0027008 -0.000609478 0)
(-0.00162292 -0.00061632 0)
(-0.000523476 -0.000587235 0)
(-0.000448351 0.0015498 0)
(-0.00144273 0.00169087 0)
(-0.00242396 0.00169511 0)
(-0.00340482 0.00168329 0)
(-0.00437712 0.00165936 0)
(-0.00533352 0.00162432 0)
(-0.00626768 0.00157913 0)
(-0.00717402 0.00152459 0)
(-0.00804742 0.00146125 0)
(-0.00888297 0.0013895 0)
(-0.00967592 0.00130961 0)
(-0.0104216 0.00122182 0)
(-0.0111154 0.00112637 0)
(-0.0117529 0.00102351 0)
(-0.0123296 0.000913538 0)
(-0.0128413 0.00079682 0)
(-0.0132839 0.000673783 0)
(-0.0136536 0.000544936 0)
(-0.0139468 0.000410864 0)
(-0.0141604 0.000272238 0)
(-0.0142917 0.00012981 0)
(-0.0143382 -1.55926e-05 0)
(-0.0142983 -0.000163066 0)
(-0.0141707 -0.000311644 0)
(-0.0139548 -0.000460302 0)
(-0.0136506 -0.00060797 0)
(-0.0132588 -0.000753545 0)
(-0.012781 -0.000895906 0)
(-0.012219 -0.00103392 0)
(-0.0115758 -0.00116647 0)
(-0.0108549 -0.00129245 0)
(-0.0100604 -0.0014108 0)
(-0.00919722 -0.00152049 0)
(-0.00827072 -0.00162059 0)
(-0.00728696 -0.00171021 0)
(-0.00625246 -0.00178855 0)
(-0.00517424 -0.00185491 0)
(-0.00405967 -0.00190868 0)
(-0.00291637 -0.0019492 0)
(-0.00175173 -0.00197089 0)
(-0.000548906 -0.0018268 0)
(-0.000441181 0.00258201 0)
(-0.00143335 0.00283523 0)
(-0.00242833 0.00284725 0)
(-0.00342569 0.00282815 0)
(-0.00441347 0.00278721 0)
(-0.00538365 0.00272747 0)
(-0.0063302 0.00265099 0)
(-0.00724801 0.00255915 0)
(-0.00813227 0.00245281 0)
(-0.00897831 0.00233252 0)
(-0.00978147 0.0021987 0)
(-0.0105371 0.00205168 0)
(-0.0112407 0.00189182 0)
(-0.0118875 0.00171952 0)
(-0.0124733 0.00153526 0)
(-0.0129935 0.00133964 0)
(-0.0134441 0.00113337 0)
(-0.013821 0.000917276 0)
(-0.0141208 0.000692354 0)
(-0.01434 0.00045972 0)
(-0.0144758 0.000220633 0)
(-0.0145258 -2.3514e-05 0)
(-0.0144881 -0.000271203 0)
(-0.0143615 -0.000520806 0)
(-0.0141451 -0.000770598 0)
(-0.0138391 -0.00101878 0)
(-0.0134441 -0.00126348 0)
(-0.0129614 -0.00150282 0)
(-0.0123932 -0.00173489 0)
(-0.0117423 -0.00195779 0)
(-0.0110123 -0.00216966 0)
(-0.0102073 -0.00236872 0)
(-0.00933236 -0.00255325 0)
(-0.00839293 -0.00272164 0)
(-0.00739515 -0.00287241 0)
(-0.00634568 -0.00300422 0)
(-0.00525163 -0.00311588 0)
(-0.00412056 -0.00320639 0)
(-0.0029602 -0.00327469 0)
(-0.00177826 -0.00331163 0)
(-0.000557008 -0.00306819 0)
(-0.000418007 0.0035529 0)
(-0.00139742 0.00399658 0)
(-0.0024238 0.00402299 0)
(-0.00344812 0.0039948 0)
(-0.00445743 0.00393386 0)
(-0.00544527 0.00384712 0)
(-0.00640724 0.00373787 0)
(-0.00733924 0.00360781 0)
(-0.00823706 0.0034579 0)
(-0.0090963 0.00328869 0)
(-0.00991247 0.00310062 0)
(-0.010681 0.00289405 0)
(-0.0113971 0.00266943 0)
(-0.0120564 0.00242725 0)
(-0.0126541 0.00216816 0)
(-0.0131858 0.00189298 0)
(-0.0136471 0.00160266 0)
(-0.0140341 0.0012984 0)
(-0.0143429 0.000981551 0)
(-0.01457 0.000653691 0)
(-0.0147124 0.000316594 0)
(-0.0147676 -2.77766e-05 0)
(-0.0147335 -0.000377275 0)
(-0.0146087 -0.000729595 0)
(-0.0143923 -0.00108229 0)
(-0.0140844 -0.00143281 0)
(-0.0136856 -0.00177852 0)
(-0.0131971 -0.00211671 0)
(-0.0126211 -0.0024447 0)
(-0.0119604 -0.00275979 0)
(-0.0112187 -0.00305934 0)
(-0.0104002 -0.0033408 0)
(-0.00951003 -0.00360175 0)
(-0.00855373 -0.0038399 0)
(-0.00753761 -0.00405314 0)
(-0.00646848 -0.00423958 0)
(-0.00535365 -0.00439755 0)
(-0.00420084 -0.0045256 0)
(-0.00301801 -0.00462224 0)
(-0.00181308 -0.00467455 0)
(-0.000567897 -0.00433089 0)
(-0.00037428 0.00448341 0)
(-0.00127224 0.00522227 0)
(-0.00241477 0.00524745 0)
(-0.0034834 0.00519519 0)
(-0.00452088 0.00510688 0)
(-0.00553046 0.00498948 0)
(-0.00651156 0.00484556 0)
(-0.00746156 0.00467627 0)
(-0.0083769 0.00448218 0)
(-0.00925347 0.00426364 0)
(-0.0100868 0.00402095 0)
(-0.0108724 0.00375445 0)
(-0.0116055 0.00346457 0)
(-0.0122813 0.0031519 0)
(-0.0128951 0.00281722 0)
(-0.0134423 0.00246151 0)
(-0.0139183 0.00208602 0)
(-0.0143189 0.00169224 0)
(-0.0146399 0.0012819 0)
(-0.0148778 0.000857058 0)
(-0.0150292 0.000419991 0)
(-0.0150915 -2.67454e-05 0)
(-0.0150623 -0.00048036 0)
(-0.0149401 -0.000937847 0)
(-0.0147239 -0.00139602 0)
(-0.0144136 -0.00185153 0)
(-0.0140097 -0.00230093 0)
(-0.0135135 -0.00274071 0)
(-0.0129271 -0.00316733 0)
(-0.0122534 -0.00357725 0)
(-0.011496 -0.00396704 0)
(-0.0106594 -0.00433336 0)
(-0.00974875 -0.00467303 0)
(-0.0087698 -0.00498305 0)
(-0.00772905 -0.00526068 0)
(-0.00663352 -0.00550344 0)
(-0.00549076 -0.00570913 0)
(-0.00430874 -0.00587589 0)
(-0.00309571 -0.00600174 0)
(-0.00185983 -0.00606991 0)
(-0.000582494 -0.00562388 0)
(-1.39995e-267 -9.35701e-05 0)
(-0.00126556 0.00632088 0)
(-0.00244979 0.00651883 0)
(-0.00354919 0.00643174 0)
(-0.0046106 0.00630938 0)
(-0.00564216 0.00615846 0)
(-0.00664459 0.0059786 0)
(-0.00761578 0.00576946 0)
(-0.00855238 0.00553086 0)
(-0.00945031 0.00526272 0)
(-0.0103051 0.00496511 0)
(-0.0111122 0.00463826 0)
(-0.0118665 0.00428258 0)
(-0.0125634 0.00389868 0)
(-0.0131976 0.00348744 0)
(-0.0137645 0.00305002 0)
(-0.0142592 0.00258788 0)
(-0.0146771 0.00210283 0)
(-0.0150138 0.001597 0)
(-0.0152655 0.00107288 0)
(-0.0154286 0.000533284 0)
(-0.0155 -1.8618e-05 0)
(-0.0154773 -0.000579371 0)
(-0.0153586 -0.00114524 0)
(-0.0151429 -0.00171224 0)
(-0.0148297 -0.00227623 0)
(-0.0144196 -0.00283289 0)
(-0.0139137 -0.00337782 0)
(-0.0133142 -0.00390661 0)
(-0.0126241 -0.00441486 0)
(-0.011847 -0.00489826 0)
(-0.0109875 -0.00535265 0)
(-0.0100509 -0.00577404 0)
(-0.00904336 -0.00615872 0)
(-0.00797143 -0.00650325 0)
(-0.00684249 -0.00680452 0)
(-0.00566437 -0.00705982 0)
(-0.00444538 -0.0072668 0)
(-0.00319408 -0.00742302 0)
(-0.00191901 -0.00750772 0)
(-0.000600966 -0.00695631 0)
(-5.54841e-26 7.98309e-25 0)
(-0.00141479 0.00760886 0)
(-0.00254616 0.00781601 0)
(-0.00365076 0.00769457 0)
(-0.00472858 0.00753979 0)
(-0.00578106 0.00735609 0)
(-0.00680647 0.0071407 0)
(-0.00780183 0.00689196 0)
(-0.00876335 0.00660896 0)
(-0.00968672 0.0062912 0)
(-0.0105673 0.00593851 0)
(-0.0114003 0.00555096 0)
(-0.0121805 0.0051289 0)
(-0.0129029 0.00467294 0)
(-0.0135622 0.00418402 0)
(-0.0141533 0.00366345 0)
(-0.0146709 0.00311291 0)
(-0.0151102 0.00253447 0)
(-0.0154664 0.00193067 0)
(-0.0157353 0.00130445 0)
(-0.0159129 0.000659173 0)
(-0.0159958 -1.36993e-06 0)
(-0.0159812 -0.000673017 0)
(-0.0158672 -0.00135126 0)
(-0.0156522 -0.0020313 0)
(-0.0153358 -0.0027081 0)
(-0.0149183 -0.00337644 0)
(-0.0144009 -0.004031 0)
(-0.0137857 -0.0046664 0)
(-0.0130756 -0.00527733 0)
(-0.0122745 -0.00585855 0)
(-0.0113872 -0.00640501 0)
(-0.0104192 -0.0069119 0)
(-0.00937672 -0.0073747 0)
(-0.00826684 -0.00778924 0)
(-0.00709718 -0.00815179 0)
(-0.00587598 -0.00845904 0)
(-0.00461192 -0.00870815 0)
(-0.003314 -0.00889618 0)
(-0.00199115 -0.00899824 0)
(-0.000623477 -0.00833769 0)
(-1.99466e-78 -1.3871e-26 0)
(-0.00151816 0.00888172 0)
(-0.00265968 0.00912195 0)
(-0.00377519 0.0089786 0)
(-0.00487018 0.00879781 0)
(-0.005945 0.00858475 0)
(-0.006996 0.00833573 0)
(-0.00801893 0.00804846 0)
(-0.00900927 0.00772163 0)
(-0.00996234 0.00735451 0)
(-0.0108732 0.00694672 0)
(-0.0117367 0.00649821 0)
(-0.0125477 0.00600921 0)
(-0.0133005 0.00548031 0)
(-0.0139897 0.00491248 0)
(-0.0146096 0.00430713 0)
(-0.0151549 0.00366611 0)
(-0.0156199 0.00299181 0)
(-0.0159997 0.00228711 0)
(-0.0162894 0.00155541 0)
(-0.0164847 0.00080067 0)
(-0.0165818 2.73088e-05 0)
(-0.0165774 -0.000759763 0)
(-0.0164692 -0.00155522 0)
(-0.0162556 -0.00235338 0)
(-0.0159357 -0.00314825 0)
(-0.0155098 -0.00393365 0)
(-0.0149789 -0.00470323 0)
(-0.0143451 -0.00545064 0)
(-0.0136116 -0.00616951 0)
(-0.0127822 -0.00685365 0)
(-0.0118619 -0.00749705 0)
(-0.0108566 -0.00809399 0)
(-0.00977274 -0.0086391 0)
(-0.00861779 -0.00912746 0)
(-0.00739979 -0.0095546 0)
(-0.0061274 -0.00991663 0)
(-0.00480981 -0.0102102 0)
(-0.00345648 -0.0104318 0)
(-0.00207685 -0.0105522 0)
(-0.000650221 -0.00977795 0)
(-4.90319e-166 -4.98665e-79 0)
(-0.00165546 0.0101742 0)
(-0.00279332 0.0104444 0)
(-0.0039166 0.0102861 0)
(-0.00503027 0.0100865 0)
(-0.00613073 0.00984857 0)
(-0.0072112 0.00956849 0)
(-0.0082658 0.00924414 0)
(-0.00928928 0.00887435 0)
(-0.0102765 0.00845834 0)
(-0.0112224 0.00799562 0)
(-0.0121214 0.00748598 0)
(-0.0129681 0.00692953 0)
(-0.0137565 0.00632679 0)
(-0.0144808 0.00567871 0)
(-0.0151348 0.00498676 0)
(-0.0157126 0.00425296 0)
(-0.0162083 0.00347993 0)
(-0.0166162 0.00267093 0)
(-0.0169308 0.00182984 0)
(-0.0171474 0.000961185 0)
(-0.0172616 7.00835e-05 0)
(-0.0172698 -0.000837768 0)
(-0.0171691 -0.00175616 0)
(-0.0169575 -0.00267846 0)
(-0.016634 -0.00359766 0)
(-0.0161986 -0.0045065 0)
(-0.0156523 -0.00539755 0)
(-0.0149973 -0.00626335 0)
(-0.0142365 -0.00709645 0)
(-0.0133743 -0.00788957 0)
(-0.0124157 -0.00863567 0)
(-0.0113669 -0.00932806 0)
(-0.0102348 -0.00996047 0)
(-0.00902729 -0.0105271 0)
(-0.0077529 -0.0110228 0)
(-0.0064208 -0.011443 0)
(-0.00504074 -0.0117837 0)
(-0.00362275 -0.0120409 0)
(-0.00217687 -0.0121808 0)
(-0.000681429 -0.0112876 0)
(-4.73128e-267 0.000140769 0)
(-0.00195464 0.0114232 0)
(-0.00294441 0.0117624 0)
(-0.00406464 0.0116182 0)
(-0.00520193 0.0114115 0)
(-0.00633441 0.0111538 0)
(-0.00744982 0.0108449 0)
(-0.00854098 0.0104849 0)
(-0.00960229 0.010073 0)
(-0.0106285 0.00960872 0)
(-0.0116143 0.00909137 0)
(-0.0125541 0.00852058 0)
(-0.0134418 0.00789628 0)
(-0.0142714 0.00721883 0)
(-0.0150363 0.0064891 0)
(-0.0157301 0.00570859 0)
(-0.0163461 0.00487943 0)
(-0.0168777 0.00400447 0)
(-0.0173186 0.00308731 0)
(-0.0176628 0.00213232 0)
(-0.0179048 0.00114461 0)
(-0.0180395 0.000130055 0)
(-0.0180629 -0.000904815 0)
(-0.0179715 -0.00195284 0)
(-0.017763 -0.00300633 0)
(-0.017436 -0.00405718 0)
(-0.0169902 -0.00509694 0)
(-0.0164267 -0.00611702 0)
(-0.0157474 -0.0071087 0)
(-0.0149556 -0.00806337 0)
(-0.0140557 -0.00897257 0)
(-0.0130531 -0.00982813 0)
(-0.0119544 -0.0106223 0)
(-0.0107668 -0.0113478 0)
(-0.00949886 -0.011998 0)
(-0.00815956 -0.0125668 0)
(-0.00675871 -0.013049 0)
(-0.00530671 -0.0134401 0)
(-0.00381426 -0.0137353 0)
(-0.00229207 -0.0138962 0)
(-0.00071737 -0.0128778 0)
(-0.000563075 0.0111782 0)
(-0.00196189 0.0130505 0)
(-0.00301258 0.013117 0)
(-0.00418926 0.0129967 0)
(-0.00537643 0.0127867 0)
(-0.00655297 0.0125095 0)
(-0.00771025 0.0121722 0)
(-0.00884319 0.011777 0)
(-0.00994716 0.0113238 0)
(-0.0110173 0.0108119 0)
(-0.0120482 0.0102405 0)
(-0.0130341 0.00960872 0)
(-0.0139687 0.0089163 0)
(-0.0148454 0.00816335 0)
(-0.0156572 0.00735061 0)
(-0.0163968 0.00647947 0)
(-0.017057 0.00555216 0)
(-0.0176305 0.00457171 0)
(-0.0181102 0.00354206 0)
(-0.0184891 0.00246805 0)
(-0.0187611 0.00135543 0)
(-0.0189204 0.000210852 0)
(-0.0189622 -0.000958234 0)
(-0.0188824 -0.00214363 0)
(-0.0186782 -0.00333649 0)
(-0.018348 -0.00452748 0)
(-0.0178911 -0.00570687 0)
(-0.0173083 -0.00686473 0)
(-0.0166019 -0.00799101 0)
(-0.015775 -0.00907577 0)
(-0.0148324 -0.0101093 0)
(-0.0137798 -0.0110821 0)
(-0.0126242 -0.0119854 0)
(-0.0113735 -0.0128107 0)
(-0.0100366 -0.0135505 0)
(-0.00862328 -0.0141978 0)
(-0.00714405 -0.0147466 0)
(-0.00561001 -0.0151917 0)
(-0.00403265 -0.0155277 0)
(-0.00242344 -0.0157111 0)
(-0.000758353 -0.0145603 0)
(-0.000456526 0.012413 0)
(-0.00147235 0.0145427 0)
(-0.00298197 0.0146107 0)
(-0.00429828 0.0144662 0)
(-0.00555954 0.0142302 0)
(-0.00678868 0.0139252 0)
(-0.00799265 0.0135571 0)
(-0.00917158 0.0131267 0)
(-0.0103227 0.012633 0)
(-0.0114416 0.0120745 0)
(-0.012523 0.0114498 0)
(-0.0135608 0.0107575 0)
(-0.0145485 0.00999699 0)
(-0.0154788 0.00916794 0)
(-0.016344 0.00827084 0)
(-0.0171364 0.00730698 0)
(-0.0178477 0.00627855 0)
(-0.0184697 0.00518873 0)
(-0.0189945 0.00404177 0)
(-0.0194141 0.002843 0)
(-0.0197215 0.00159883 0)
(-0.01991 0.000316738 0)
(-0.0199738 -0.000994809 0)
(-0.0199084 -0.00232646 0)
(-0.0197102 -0.00366812 0)
(-0.0193772 -0.00500905 0)
(-0.0189084 -0.0063381 0)
(-0.0183046 -0.00764385 0)
(-0.0175678 -0.00891477 0)
(-0.0167017 -0.0101395 0)
(-0.015711 -0.0113067 0)
(-0.014602 -0.0124058 0)
(-0.0133821 -0.0134266 0)
(-0.01206 -0.0143595 0)
(-0.0106451 -0.0151958 0)
(-0.00914808 -0.0159276 0)
(-0.00758015 -0.0165481 0)
(-0.00595327 -0.0170514 0)
(-0.00427982 -0.0174314 0)
(-0.00257212 -0.0176392 0)
(-0.00080473 -0.016348 0)
(-5.20796e-282 -0.000114132 0)
(-0.00148057 0.0157979 0)
(-0.00308546 0.0162481 0)
(-0.00446446 0.016028 0)
(-0.00577369 0.0157433 0)
(-0.00704788 0.0154037 0)
(-0.00829787 0.0150037 0)
(-0.00952513 0.0145391 0)
(-0.0107272 0.0140065 0)
(-0.0118997 0.013403 0)
(-0.0130372 0.0127264 0)
(-0.0141332 0.0119746 0)
(-0.0151805 0.0111463 0)
(-0.0161714 0.0102408 0)
(-0.0170976 0.00925824 0)
(-0.0179502 0.00819957 0)
(-0.0187202 0.00706691 0)
(-0.0193983 0.00586355 0)
(-0.0199754 0.00459398 0)
(-0.0204426 0.00326404 0)
(-0.0207915 0.00188083 0)
(-0.0210145 0.000452741 0)
(-0.0211049 -0.00101067 0)
(-0.0210571 -0.00249877 0)
(-0.020867 -0.00400002 0)
(-0.0205319 -0.00550215 0)
(-0.0200507 -0.00699238 0)
(-0.0194239 -0.00845762 0)
(-0.0186536 -0.0098847 0)
(-0.0177436 -0.0112605 0)
(-0.0166991 -0.0125724 0)
(-0.0155267 -0.0138081 0)
(-0.0142347 -0.0149559 0)
(-0.0128323 -0.0160051 0)
(-0.0113297 -0.0169458 0)
(-0.00973851 -0.0177691 0)
(-0.00807078 -0.0184672 0)
(-0.00633947 -0.0190335 0)
(-0.0045579 -0.0194611 0)
(-0.00273939 -0.0196953 0)
(-0.000856901 -0.0182546 0)
(-6.60469e-248 8.93207e-166 0)
(-0.00196822 0.0175153 0)
(-0.00335582 0.0179153 0)
(-0.00470028 0.0176305 0)
(-0.00602197 0.0173087 0)
(-0.00732974 0.0169412 0)
(-0.00862372 0.0165139 0)
(-0.00990126 0.0160187 0)
(-0.0111582 0.0154502 0)
(-0.0123894 0.0148044 0)
(-0.0135888 0.014078 0)
(-0.0147495 0.0132682 0)
(-0.0158637 0.012373 0)
(-0.016923 0.0113911 0)
(-0.0179182 0.0103221 0)
(-0.0188395 0.00916668 0)
(-0.0196769 0.00792664 0)
(-0.0204197 0.00660528 0)
(-0.0210575 0.00520735 0)
(-0.0215801 0.00373914 0)
(-0.0219777 0.0022085 0)
(-0.0222414 0.000624799 0)
(-0.0223635 -0.00100117 0)
(-0.0223373 -0.00265733 0)
(-0.0221578 -0.00433053 0)
(-0.0218218 -0.00600675 0)
(-0.0213278 -0.00767136 0)
(-0.020676 -0.00930939 0)
(-0.0198688 -0.0109058 0)
(-0.01891 -0.0124456 0)
(-0.0178054 -0.0139144 0)
(-0.0165623 -0.0152983 0)
(-0.0151895 -0.0165841 0)
(-0.0136971 -0.0177595 0)
(-0.0120964 -0.0188135 0)
(-0.0103997 -0.0197361 0)
(-0.0086202 -0.0205185 0)
(-0.00677193 -0.0211531 0)
(-0.0048693 -0.0216324 0)
(-0.00292671 -0.0218954 0)
(-0.000915315 -0.0202949 0)
(-3.57283e-165 0.000213529 0)
(-0.00258207 0.0190291 0)
(-0.00366667 0.0195049 0)
(-0.0049554 0.019238 0)
(-0.00628294 0.0189148 0)
(-0.00762376 0.0185361 0)
(-0.00896393 0.0180905 0)
(-0.0102955 0.0175706 0)
(-0.011612 0.0169706 0)
(-0.0129075 0.0162859 0)
(-0.0141751 0.0155126 0)
(-0.0154075 0.0146471 0)
(-0.0165965 0.0136866 0)
(-0.0177327 0.0126289 0)
(-0.018806 0.011473 0)
(-0.0198056 0.010219 0)
(-0.02072 0.00886839 0)
(-0.0215373 0.00742439 0)
(-0.0222454 0.00589185 0)
(-0.0228324 0.00427755 0)
(-0.0232871 0.00259009 0)
(-0.023599 0.000839945 0)
(-0.0237589 -0.000960723 0)
(-0.0237589 -0.0027982 0)
(-0.0235933 -0.00465748 0)
(-0.0232578 -0.00652252 0)
(-0.0227506 -0.00837661 0)
(-0.0220719 -0.0102026 0)
(-0.0212239 -0.0119833 0)
(-0.0202111 -0.0137018 0)
(-0.0190397 -0.0153415 0)
(-0.0177177 -0.0168868 0)
(-0.0162548 -0.0183227 0)
(-0.014662 -0.0196357 0)
(-0.0129517 -0.020813 0)
(-0.0111373 -0.0218437 0)
(-0.00923316 -0.0227177 0)
(-0.0072544 -0.0234268 0)
(-0.0052167 -0.0239623 0)
(-0.00313569 -0.0242568 0)
(-0.000980474 -0.022485 0)
(-0.000854116 0.0185852 0)
(-0.00276353 0.0211083 0)
(-0.00385332 0.021086 0)
(-0.00516379 0.0208715 0)
(-0.00652897 0.0205722 0)
(-0.00791666 0.0201958 0)
(-0.0093108 0.0197402 0)
(-0.0107023 0.0192015 0)
(-0.0120841 0.0185749 0)
(-0.0134499 0.0178557 0)
(-0.0147927 0.0170392 0)
(-0.0161046 0.016121 0)
(-0.0173768 0.0150974 0)
(-0.0185992 0.0139652 0)
(-0.0197608 0.0127224 0)
(-0.0208494 0.0113685 0)
(-0.021852 0.00990437 0)
(-0.0227549 0.00833291 0)
(-0.0235444 0.00665909 0)
(-0.0242065 0.00489008 0)
(-0.0247281 0.00303534 0)
(-0.0250968 0.00110652 0)
(-0.0253017 -0.000882645 0)
(-0.0253336 -0.00291655 0)
(-0.0251855 -0.00497806 0)
(-0.0248524 -0.00704881 0)
(-0.0243319 -0.00910962 0)
(-0.0236241 -0.0111409 0)
(-0.0227315 -0.013123 0)
(-0.0216588 -0.0150367 0)
(-0.0204131 -0.0168632 0)
(-0.0190032 -0.0185847 0)
(-0.01744 -0.0201847 0)
(-0.0157354 -0.0216476 0)
(-0.0139032 -0.0229596 0)
(-0.0119578 -0.0241081 0)
(-0.00991491 -0.0250822 0)
(-0.00779103 -0.0258725 0)
(-0.00560312 -0.0264694 0)
(-0.00336813 -0.0267983 0)
(-0.00105294 -0.0248424 0)
(-0.000815766 0.0206175 0)
(-0.00246404 0.022735 0)
(-0.0038883 0.0227594 0)
(-0.00531268 0.0225861 0)
(-0.00675104 0.0223057 0)
(-0.00820155 0.0219335 0)
(-0.00965858 0.021472 0)
(-0.0111165 0.0209193 0)
(-0.0125697 0.020271 0)
(-0.0140123 0.0195221 0)
(-0.0154374 0.0186671 0)
(-0.0168369 0.0177003 0)
(-0.0182016 0.0166169 0)
(-0.0195206 0.0154124 0)
(-0.0207817 0.0140836 0)
(-0.0219714 0.012629 0)
(-0.0230748 0.0110485 0)
(-0.0240764 0.00934478 0)
(-0.0249601 0.00752256 0)
(-0.0257097 0.00558944 0)
(-0.0263096 0.00355573 0)
(-0.0267454 0.00143443 0)
(-0.0270039 -0.000758918 0)
(-0.0270745 -0.00300653 0)
(-0.0269484 -0.00528877 0)
(-0.0266199 -0.00758454 0)
(-0.0260862 -0.00987184 0)
(-0.025347 -0.0121282 0)
(-0.0244052 -0.0143312 0)
(-0.0232662 -0.0164588 0)
(-0.0219379 -0.0184899 0)
(-0.0204303 -0.0204044 0)
(-0.0187554 -0.0221838 0)
(-0.0169266 -0.0238108 0)
(-0.0149589 -0.0252699 0)
(-0.0128681 -0.0265472 0)
(-0.0106713 -0.0276307 0)
(-0.00838644 -0.0285097 0)
(-0.00603187 -0.0291738 0)
(-0.00362606 -0.0295404 0)
(-0.00113334 -0.0273862 0)
(-0.000766847 0.0226194 0)
(-0.00240613 0.0245959 0)
(-0.00393687 0.0245859 0)
(-0.00544847 0.0244085 0)
(-0.00696039 0.0241311 0)
(-0.00847887 0.0237597 0)
(-0.0100041 0.0232943 0)
(-0.0115336 0.0227317 0)
(-0.0130638 0.0220671 0)
(-0.0145894 0.0212942 0)
(-0.0161041 0.0204062 0)
(-0.0175999 0.0193962 0)
(-0.019067 0.0182575 0)
(-0.0204939 0.0169841 0)
(-0.0218671 0.0155713 0)
(-0.0231716 0.0140159 0)
(-0.0243904 0.012317 0)
(-0.0255057 0.0104762 0)
(-0.0264986 0.00849808 0)
(-0.0273503 0.00639058 0)
(-0.0280422 0.00416487 0)
(-0.0285571 0.00183549 0)
(-0.0288795 -0.000579944 0)
(-0.0289965 -0.00306106 0)
(-0.028898 -0.00558527 0)
(-0.028577 -0.00812826 0)
(-0.0280299 -0.0106647 0)
(-0.0272568 -0.0131687 0)
(-0.0262608 -0.0156146 0)
(-0.0250482 -0.0179774 0)
(-0.023628 -0.0202332 0)
(-0.0220116 -0.0223595 0)
(-0.0202126 -0.0243355 0)
(-0.0182459 -0.0261421 0)
(-0.0161278 -0.0277622 0)
(-0.013876 -0.0291805 0)
(-0.0115088 -0.0303836 0)
(-0.00904575 -0.0313599 0)
(-0.00650669 -0.0320976 0)
(-0.00391172 -0.0325057 0)
(-0.00122238 -0.0301374 0)
(-0.000758175 0.0244852 0)
(-0.00241417 0.0265498 0)
(-0.00400522 0.0265164 0)
(-0.00558394 0.0263292 0)
(-0.0071629 0.0260503 0)
(-0.00874883 0.0256793 0)
(-0.0103442 0.0252127 0)
(-0.0119488 0.0246453 0)
(-0.0135604 0.0239706 0)
(-0.015175 0.0231807 0)
(-0.0167867 0.022267 0)
(-0.0183877 0.0212206 0)
(-0.0199678 0.0200329 0)
(-0.021515 0.0186956 0)
(-0.0230144 0.0172021 0)
(-0.0244492 0.0155472 0)
(-0.0258002 0.0137283 0)
(-0.0270466 0.011746 0)
(-0.0281665 0.0096043 0)
(-0.0291374 0.00731122 0)
(-0.0299374 0.00487896 0)
(-0.0305458 0.00232378 0)
(-0.0309443 -0.000334224 0)
(-0.0311173 -0.00307163 0)
(-0.0310527 -0.00586229 0)
(-0.0307424 -0.00867806 0)
(-0.0301822 -0.0114896 0)
(-0.0293722 -0.0142671 0)
(-0.0283161 -0.0169812 0)
(-0.0270214 -0.0196033 0)
(-0.0254987 -0.0221063 0)
(-0.0237611 -0.0244651 0)
(-0.021824 -0.0266567 0)
(-0.0197043 -0.0286601 0)
(-0.0174199 -0.0304565 0)
(-0.0149899 -0.0320291 0)
(-0.0124346 -0.0333633 0)
(-0.00977461 -0.0344463 0)
(-0.00703173 -0.0352649 0)
(-0.00422766 -0.0357188 0)
(-0.00132085 -0.0331189 0)
(-0.000764659 0.026374 0)
(-0.0024485 0.0285738 0)
(-0.00408525 0.0285312 0)
(-0.00571914 0.0283387 0)
(-0.00735843 0.0280606 0)
(-0.00900911 0.0276933 0)
(-0.0106746 0.0272307 0)
(-0.0123562 0.0266653 0)
(-0.0140529 0.0259884 0)
(-0.0157617 0.0251902 0)
(-0.0174775 0.0242598 0)
(-0.0191927 0.0231861 0)
(-0.0208973 0.0219576 0)
(-0.0225782 0.0205637 0)
(-0.0242195 0.0189948 0)
(-0.0258023 0.0172433 0)
(-0.0273048 0.0153042 0)
(-0.0287028 0.0131765 0)
(-0.0299705 0.0108632 0)
(-0.0310811 0.00837247 0)
(-0.0320085 0.00571735 0)
(-0.0327277 0.00291619 0)
(-0.0332167 -7.98046e-06 0)
(-0.0334569 -0.00302802 0)
(-0.0334339 -0.00611349 0)
(-0.0331381 -0.00923162 0)
(-0.0325648 -0.0123483 0)
(-0.0317142 -0.015429 0)
(-0.0305911 -0.0184398 0)
(-0.0292045 -0.0213483 0)
(-0.027567 -0.0241237 0)
(-0.0256941 -0.0267382 0)
(-0.0236034 -0.0291663 0)
(-0.0213139 -0.0313851 0)
(-0.0188455 -0.0333745 0)
(-0.0162191 -0.0351162 0)
(-0.0134563 -0.0365942 0)
(-0.0105794 -0.0377944 0)
(-0.00761167 -0.038702 0)
(-0.00457675 -0.0392066 0)
(-0.00142967 -0.0363558 0)
(-0.000776132 0.028307 0)
(-0.00249113 0.0306617 0)
(-0.00416754 0.0306207 0)
(-0.00584914 0.0304301 0)
(-0.00754294 0.0301587 0)
(-0.00925485 0.0298014 0)
(-0.0109891 0.0293502 0)
(-0.0127482 0.0287955 0)
(-0.0145325 0.0281264 0)
(-0.0163402 0.0273308 0)
(-0.0181669 0.0263953 0)
(-0.0200057 0.0253057 0)
(-0.0218465 0.0240477 0)
(-0.0236758 0.022607 0)
(-0.0254766 0.0209707 0)
(-0.0272276 0.0191276 0)
(-0.028904 0.0170699 0)
(-0.0304777 0.0147939 0)
(-0.0319179 0.0123012 0)
(-0.0331928 0.00959959 0)
(-0.0342706 0.00670329 0)
(-0.0351213 0.00363299 0)
(-0.0357181 0.000415315 0)
(-0.0360388 -0.00291803 0)
(-0.0360664 -0.00633135 0)
(-0.0357895 -0.0097862 0)
(-0.0352028 -0.0132427 0)
(-0.0343071 -0.0166607 0)
(-0.0331085 -0.020001 0)
(-0.0316183 -0.0232264 0)
(-0.0298517 -0.0263024 0)
(-0.0278272 -0.029198 0)
(-0.0255652 -0.0318852 0)
(-0.0230875 -0.0343398 0)
(-0.0204161 -0.03654 0)
(-0.0175735 -0.0384667 0)
(-0.0145826 -0.0401025 0)
(-0.0114671 -0.0414318 0)
(-0.00825189 -0.0424378 0)
(-0.00496236 -0.0429989 0)
(-0.00154989 -0.0398761 0)
(-0.000788264 0.030291 0)
(-0.00253313 0.032811 0)
(-0.00424435 0.0327796 0)
(-0.00596753 0.0325981 0)
(-0.00771021 0.0323408 0)
(-0.00947912 0.0320018 0)
(-0.0112797 0.0315715 0)
(-0.0131157 0.0310385 0)
(-0.0149891 0.0303897 0)
(-0.0168993 0.0296102 0)
(-0.0188433 0.0286839 0)
(-0.0208147 0.0275932 0)
(-0.0228041 0.0263201 0)
(-0.0247976 0.0248461 0)
(-0.0267771 0.0231537 0)
(-0.0287193 0.0212275 0)
(-0.0305958 0.0190551 0)
(-0.0323737 0.0166293 0)
(-0.0340163 0.0139497 0)
(-0.035485 0.011023 0)
(-0.0367411 0.00786484 0)
(-0.0377481 0.00449863 0)
(-0.0384736 0.000955507 0)
(-0.0388907 -0.00272711 0)
(-0.0389792 -0.00650701 0)
(-0.038726 -0.0103388 0)
(-0.0381253 -0.0141755 0)
(-0.0371786 -0.0179702 0)
(-0.0358941 -0.0216774 0)
(-0.034286 -0.0252542 0)
(-0.0323731 -0.028662 0)
(-0.0301779 -0.0318661 0)
(-0.0277248 -0.0348369 0)
(-0.0250384 -0.0375486 0)
(-0.0221434 -0.0399788 0)
(-0.0190637 -0.0421077 0)
(-0.015823 -0.0439167 0)
(-0.012446 -0.0453886 0)
(-0.00895872 -0.0465041 0)
(-0.00538853 -0.0471286 0)
(-0.00168283 -0.0437108 0)
(-0.000798867 0.0323258 0)
(-0.00256908 0.0350185 0)
(-0.00430927 0.0350025 0)
(-0.00606748 0.0348373 0)
(-0.00785278 0.0346024 0)
(-0.00967339 0.0342915 0)
(-0.0115364 0.0338937 0)
(-0.0134475 0.0333956 0)
(-0.0154102 0.0327819 0)
(-0.0174257 0.0320351 0)
(-0.0194922 0.0311356 0)
(-0.021605 0.0300623 0)
(-0.0237554 0.0287927 0)
(-0.0259298 0.0273033 0)
(-0.0281095 0.025571 0)
(-0.030269 0.0235742 0)
(-0.0323762 0.0212947 0)
(-0.0343923 0.0187203 0)
(-0.0362732 0.0158468 0)
(-0.0379716 0.0126799 0)
(-0.03944 0.00923611 0)
(-0.0406335 0.00554269 0)
(-0.0415126 0.00163644 0)
(-0.0420449 -0.00243798 0)
(-0.0422065 -0.00663019 0)
(-0.0419822 -0.0108862 0)
(-0.0413661 -0.0151504 0)
(-0.0403608 -0.0193675 0)
(-0.0389771 -0.0234844 0)
(-0.0372333 -0.0274517 0)
(-0.0351532 -0.0312255 0)
(-0.0327649 -0.0347679 0)
(-0.0300976 -0.0380476 0)
(-0.0271802 -0.0410384 0)
(-0.0240396 -0.0437185 0)
(-0.020701 -0.0460679 0)
(-0.0171882 -0.0480673 0)
(-0.0135256 -0.0496974 0)
(-0.00973991 -0.0509356 0)
(-0.00586033 -0.0516323 0)
(-0.00183013 -0.0478947 0)
(-0.00080654 0.0344076 0)
(-0.002595 0.0372787 0)
(-0.00435661 0.0372831 0)
(-0.00614199 0.0371413 0)
(-0.00796226 0.0369378 0)
(-0.00982781 0.0366661 0)
(-0.011748 0.0363139 0)
(-0.0137305 0.0358663 0)
(-0.0157812 0.0353055 0)
(-0.0179031 0.0346109 0)
(-0.0200966 0.0337597 0)
(-0.0223585 0.0327266 0)
(-0.0246819 0.0314842 0)
(-0.0270545 0.0300031 0)
(-0.0294575 0.028253 0)
(-0.0318641 0.0262042 0)
(-0.0342379 0.0238304 0)
(-0.0365331 0.0211118 0)
(-0.0386962 0.018039 0)
(-0.0406685 0.0146154 0)
(-0.042391 0.0108588 0)
(-0.0438078 0.00680115 0)
(-0.0448705 0.00248679 0)
(-0.0455401 -0.00203021 0)
(-0.0457886 -0.0066891 0)
(-0.0455989 -0.0114253 0)
(-0.0449648 -0.0161726 0)
(-0.0438905 -0.0208655 0)
(-0.0423906 -0.0254416 0)
(-0.0404887 -0.0298433 0)
(-0.0382156 -0.0340207 0)
(-0.0356068 -0.0379327 0)
(-0.0326987 -0.0415469 0)
(-0.0295254 -0.0448386 0)
(-0.0261166 -0.047788 0)
(-0.0224974 -0.0503769 0)
(-0.0186902 -0.0525858 0)
(-0.0147176 -0.0543929 0)
(-0.0106054 -0.0557707 0)
(-0.00638447 -0.0565513 0)
(-0.00199403 -0.0524674 0)
(-0.000810214 0.03653 0)
(-0.00260756 0.0395837 0)
(-0.0043811 0.0396133 0)
(-0.00618389 0.0395017 0)
(-0.00802957 0.0393391 0)
(-0.00993126 0.0391187 0)
(-0.0119011 0.0388273 0)
(-0.0139497 0.0384481 0)
(-0.0160851 0.0379606 0)
(-0.018313 0.0373413 0)
(-0.0206359 0.0365637 0)
(-0.0230531 0.0355986 0)
(-0.0255603 0.0344131 0)
(-0.0281481 0.0329711 0)
(-0.0307992 0.0312335 0)
(-0.0334863 0.0291597 0)
(-0.0361689 0.0267118 0)
(-0.038793 0.0238591 0)
(-0.0412925 0.020584 0)
(-0.0435939 0.016886 0)
(-0.0456222 0.0127844 0)
(-0.0473074 0.00831784 0)
(-0.0485897 0.00354093 0)
(-0.0494226 -0.0014798 0)
(-0.0497737 -0.00667044 0)
(-0.0496241 -0.0119533 0)
(-0.0489678 -0.0172495 0)
(-0.047811 -0.0224812 0)
(-0.0461728 -0.0275739 0)
(-0.0440839 -0.0324601 0)
(-0.0415848 -0.0370821 0)
(-0.0387218 -0.0413954 0)
(-0.0355414 -0.0453683 0)
(-0.0320849 -0.0489802 0)
(-0.028385 -0.0522168 0)
(-0.0244653 -0.0550642 0)
(-0.0203435 -0.0575042 0)
(-0.016037 -0.0595116 0)
(-0.0115687 -0.0610514 0)
(-0.00697041 -0.0619326 0)
(-0.00217771 -0.0574752 0)
(-0.000809012 0.0386848 0)
(-0.00260385 0.0419238 0)
(-0.00437773 0.0419825 0)
(-0.00618589 0.0419076 0)
(-0.00804493 0.0417956 0)
(-0.00997138 0.0416399 0)
(-0.011981 0.0414262 0)
(-0.0140878 0.0411356 0)
(-0.0163028 0.040745 0)
(-0.018634 0.0402275 0)
(-0.0210865 0.0395531 0)
(-0.0236625 0.0386888 0)
(-0.0263619 0.0375967 0)
(-0.0291801 0.0362336 0)
(-0.0321044 0.0345495 0)
(-0.0351091 0.0324895 0)
(-0.0381504 0.0299989 0)
(-0.0411645 0.0270305 0)
(-0.0440687 0.0235536 0)
(-0.0467688 0.019562 0)
(-0.0491678 0.0150768 0)
(-0.0511768 0.0101463 0)
(-0.0527217 0.00483988 0)
(-0.0537478 -0.000758963 0)
(-0.0542188 -0.0065595 0)
(-0.0541148 -0.0124684 0)
(-0.0534302 -0.0183917 0)
(-0.0521733 -0.0242368 0)
(-0.050368 -0.029914 0)
(-0.0480543 -0.035342 0)
(-0.0452861 -0.0404531 0)
(-0.0421257 -0.0451987 0)
(-0.0386348 -0.0495502 0)
(-0.0348652 -0.0534958 0)
(-0.0308529 -0.0570328 0)
(-0.026617 -0.0601566 0)
(-0.0221654 -0.0628525 0)
(-0.0175044 -0.0650909 0)
(-0.0126494 -0.0668244 0)
(-0.00763217 -0.0678313 0)
(-0.00238597 -0.0629735 0)
(-0.00080227 0.0408618 0)
(-0.00258145 0.0442868 0)
(-0.00434196 0.0443774 0)
(-0.00614079 0.0443451 0)
(-0.007998 0.0442933 0)
(-0.00993457 0.0442164 0)
(-0.011971 0.0440993 0)
(-0.0141255 0.0439206 0)
(-0.0164125 0.0436537 0)
(-0.0188422 0.0432678 0)
(-0.0214216 0.0427299 0)
(-0.0241563 0.042004 0)
(-0.0270515 0.0410491 0)
(-0.0301111 0.0398152 0)
(-0.0333317 0.0382402 0)
(-0.036694 0.0362498 0)
(-0.0401532 0.0337645 0)
(-0.0436335 0.0307115 0)
(-0.0470301 0.0270399 0)
(-0.0502186 0.0227333 0)
(-0.0530711 0.0178163 0)
(-0.055472 0.0123519 0)
(-0.0573303 0.00643195 0)
(-0.0585829 0.00016376 0)
(-0.0591921 -0.00634049 0)
(-0.0591386 -0.0129696 0)
(-0.0584176 -0.0196133 0)
(-0.0570383 -0.0261614 0)
(-0.0550288 -0.0325047 0)
(-0.0524399 -0.0385421 0)
(-0.0493446 -0.0441907 0)
(-0.0458295 -0.0493964 0)
(-0.04198 -0.0541371 0)
(-0.0378646 -0.0584184 0)
(-0.033523 -0.0622591 0)
(-0.0289649 -0.0656735 0)
(-0.0241787 -0.0686549 0)
(-0.0191494 -0.0711669 0)
(-0.0138772 -0.0731417 0)
(-0.00839166 -0.0743136 0)
(-0.00262635 -0.0690319 0)
(-0.000789674 0.0430503 0)
(-0.00253886 0.0466591 0)
(-0.00427025 0.0467824 0)
(-0.00604186 0.0467964 0)
(-0.00787803 0.0468136 0)