/*--------------------------------*- C++ -*----------------------------------*\
| =========                 |                                                 |
| \\      /  F ield         | OpenFOAM: The Open Source CFD Toolbox           |
|  \\    /   O peration     | Version:  4.1                                   |
|   \\  /    A nd           | Web:      www.OpenFOAM.org                      |
|    \\/     M anipulation  |                                                 |
\*---------------------------------------------------------------------------*/
FoamFile
{
    version     2.0;
    format      ascii;
    class       volVectorField;
    location    "0.086";
    object      U;
}
// * * * * * * * * * * * * * * * * * * * * * * * * * * * * * * * * * * * * * //

dimensions      [0 1 -1 0 0 0 0];

internalField   nonuniform List<vector> 
100
(
(-0.00196186 0.00141926 0)
(-0.00516351 0.00156008 0)
(-0.012066 0.00164716 0)
(-0.0152926 0.000605957 0)
(-0.0186596 0.000199394 0)
(-0.01912 -0.0012318 0)
(-0.0171536 -0.00179045 0)
(-0.0140689 -0.00316867 0)
(-0.00650318 -0.00321155 0)
(-0.00268405 -0.00298169 0)
(-0.00323095 0.00575769 0)
(-0.0101366 0.00845807 0)
(-0.0219302 0.00878429 0)
(-0.027959 0.00574554 0)
(-0.0334179 0.00404442 0)
(-0.0341347 -0.000573381 0)
(-0.0307933 -0.0028693 0)
(-0.024993 -0.00772986 0)
(-0.0122622 -0.00797611 0)
(-0.00411669 -0.00617463 0)
(-0.00385923 0.0148023 0)
(-0.0122307 0.0200474 0)
(-0.0259814 0.0197409 0)
(-0.0331793 0.0116412 0)
(-0.0398435 0.00667537 0)
(-0.0409959 -0.00445864 0)
(-0.0377903 -0.010773 0)
(-0.0311181 -0.0223429 0)
(-0.0161838 -0.0242207 0)
(-0.00565659 -0.0197107 0)
(-0.0060412 0.0216967 0)
(-0.0172901 0.0303073 0)
(-0.0349493 0.0299851 0)
(-0.0444018 0.0193157 0)
(-0.0527952 0.0124682 0)
(-0.0549209 -0.00277191 0)
(-0.0519524 -0.0119185 0)
(-0.0439406 -0.0292313 0)
(-0.024821 -0.0326389 0)
(-0.00907529 -0.027445 0)
(-0.00709947 0.038397 0)
(-0.0202281 0.0486475 0)
(-0.0405433 0.0474152 0)
(-0.05173 0.0287301 0)
(-0.0623205 0.017627 0)
(-0.0660253 -0.00641849 0)
(-0.0652743 -0.0216856 0)
(-0.057528 -0.0508828 0)
(-0.0361604 -0.0596412 0)
(-0.0140863 -0.0547196 0)
(-0.0139879 0.0484586 0)
(-0.0339291 0.0631069 0)
(-0.0598015 0.0617385 0)
(-0.0748156 0.0405651 0)
(-0.0873463 0.0277365 0)
(-0.0935694 2.10099e-05 0)
(-0.0960608 -0.0188557 0)
(-0.0885675 -0.0579546 0)
(-0.0630896 -0.0742827 0)
(-0.0255205 -0.076417 0)
(-0.0157764 0.0872781 0)
(-0.0385947 0.0937877 0)
(-0.0665964 0.0895935 0)
(-0.0827793 0.0548729 0)
(-0.0970133 0.037176 0)
(-0.104472 0.000219004 0)
(-0.113089 -0.0265605 0)
(-0.109239 -0.0867123 0)
(-0.0892585 -0.12389 0)
(-0.0379791 -0.146455 0)
(-0.0404142 0.100991 0)
(-0.0754852 0.112452 0)
(-0.0916765 0.106228 0)
(-0.102293 0.0699861 0)
(-0.107321 0.051053 0)
(-0.110796 0.0157121 0)
(-0.12472 -0.0112458 0)
(-0.120757 -0.0809511 0)
(-0.114908 -0.141428 0)
(-0.0499664 -0.201119 0)
(-0.0355141 0.206095 0)
(-0.0328042 0.14322 0)
(-0.0140212 0.119565 0)
(0.00730525 0.0680901 0)
(0.021023 0.0472776 0)
(0.0417495 0.0141435 0)
(0.0349832 -0.0157227 0)
(0.0463331 -0.101557 0)
(0.00276785 -0.195943 0)
(0.00262877 -0.32013 0)
(0.149974 0.163401 0)
(0.235296 0.0884489 0)
(0.370752 0.0679579 0)
(0.428618 0.0343884 0)
(0.469977 0.0200317 0)
(0.498823 0.00193759 0)
(0.484187 -0.00965361 0)
(0.476694 -0.0447679 0)
(0.33533 -0.0848695 0)
(0.199212 -0.182347 0)
)
;

boundaryField
{
    movingWall
    {
        type            fixedValue;
        value           uniform (1 0 0);
    }
    fixedWalls
    {
        type            noSlip;
    }
    frontAndBack
    {
        type            empty;
    }
}


// ************************************************************************* //
