/*--------------------------------*- C++ -*----------------------------------*\
| =========                 |                                                 |
| \\      /  F ield         | OpenFOAM: The Open Source CFD Toolbox           |
|  \\    /   O peration     | Version:  4.1                                   |
|   \\  /    A nd           | Web:      www.OpenFOAM.org                      |
|    \\/     M anipulation  |                                                 |
\*---------------------------------------------------------------------------*/
FoamFile
{
    version     2.0;
    format      ascii;
    class       volScalarField;
    location    "0.0038";
    object      p;
}
// * * * * * * * * * * * * * * * * * * * * * * * * * * * * * * * * * * * * * //

dimensions      [1 -1 -2 0 0 0 0];

internalField   nonuniform List<scalar> 
441
(
100000
99999.9
99999.7
99999.9
100000
99999.6
100000
100000
100000
100001
100001
100001
100001
100001
100001
100001
100001
100001
100001
100001
100001
100000
100000
100000
100000
100000
100000
100000
100000
100000
100000
100000
100000
100000
100000
100000
100001
100000
100001
100000
100001
100000
100000
99999.9
100000
99999.9
100000
99999.9
100000
100000
100000
100001
100001
100001
100001
100001
100001
100001
100001
100001
100001
100001
100001
100000
100000
100000
100000
100000
100000
100000
100000
100000
100000
100000
100000
100000
100001
100001
100001
100001
100001
100001
100001
100001
100000
99999.6
99999.8
99999.7
99999.8
99999.8
100000
100000
100000
100000
100000
100001
100001
100001
100001
100001
100001
100001
100001
100001
100001
99998.9
99999.6
99999.4
99999.6
99999.6
99999.8
99999.8
100000
100000
100000
100000
100001
100001
100001
100001
100001
100001
100001
100001
100001
100001
99998.5
99998.9
99998.9
99999.1
99999.2
99999.4
99999.6
99999.8
100000
100000
100000
100001
100001
100001
100001
100001
100001
100002
100001
100002
100001
99998.6
99998.7
99998.7
99998.9
99998.9
99999.2
99999.3
99999.6
99999.8
100000
100000
100001
100001
100001
100001
100002
100001
100002
100002
100002
100001
99997.8
99997.9
99997.9
99998.2
99998.3
99998.6
99998.9
99999.3
99999.6
100000
100000
100001
100001
100001
100002
100002
100002
100003
100002
100003
100002
99997.5
99997.4
99997.5
99997.7
99997.9
99998.2
99998.5
99999
99999.4
99999.9
100000
100001
100001
100002
100002
100002
100003
100003
100003
100003
100002
99996.3
99996.3
99996.4
99996.7
99997
99997.4
99997.8
99998.4
99999
99999.7
100000
100001
100002
100002
100003
100003
100004
100004
100004
100004
100005
99995.7
99995.7
99995.8
99996.1
99996.4
99996.9
99997.3
99998
99998.7
99999.4
100000
100001
100002
100002
100003
100004
100004
100004
100005
100005
100004
99993.9
99994
99994.1
99994.7
99995
99995.8
99996.3
99997.3
99998.1
99999.1
100000
100001
100002
100003
100004
100005
100006
100006
100006
100007
100004
99993.2
99993.3
99993.3
99994
99994.2
99995.1
99995.7
99996.7
99997.6
99998.7
99999.9
100001
100002
100003
100005
100005
100006
100007
100007
100007
100006
99990.4
99990.7
99990.7
99991.8
99992.1
99993.5
99994.3
99995.7
99996.9
99998.3
99999.8
100001
100003
100004
100006
100007
100009
100009
100010
100010
100008
99989.8
99990.1
99989.9
99991.1
99991.2
99992.7
99993.5
99995
99996.3
99997.8
99999.5
100001
100003
100004
100006
100007
100010
100010
100011
100011
100007
99984.4
99986
99985.5
99988
99988.3
99990.7
99991.8
99993.9
99995.4
99997.3
99999.2
100001
100003
100005
100008
100009
100014
100013
100020
100015
100031
99984.3
99985.8
99984.8
99987.3
99987.4
99989.9
99990.9
99993.2
99994.8
99996.7
99998.8
100000
100003
100004
100008
100008
100013
100013
100020
100019
100028
99971.8
99979.1
99977.5
99983.3
99983.7
99987.7
99989.2
99992.1
99994
99996.3
99998.6
100000
100003
100005
100009
100010
100016
100017
100028
100028
100042
99971.9
99980
99977.6
99982.8
99983.2
99987.2
99988.7
99991.7
99993.7
99995.9
99998.2
99999.9
100003
100004
100008
100008
100014
100014
100026
100027
100045
99929.3
99971.8
99970.2
99981.4
99981.8
99986.9
99988.4
99991.6
99993.6
99995.9
99998.3
100000
100003
100004
100009
100009
100018
100019
100038
100045
100100
)
;

boundaryField
{
    movingWall
    {
        type            zeroGradient;
    }
    fixedWalls
    {
        type            zeroGradient;
    }
    frontAndBack
    {
        type            empty;
    }
}


// ************************************************************************* //
