/*--------------------------------*- C++ -*----------------------------------*\
| =========                 |                                                 |
| \\      /  F ield         | OpenFOAM: The Open Source CFD Toolbox           |
|  \\    /   O peration     | Version:  4.1                                   |
|   \\  /    A nd           | Web:      www.OpenFOAM.org                      |
|    \\/     M anipulation  |                                                 |
\*---------------------------------------------------------------------------*/
FoamFile
{
    version     2.0;
    format      ascii;
    class       volVectorField;
    location    "0.1485";
    object      U;
}
// * * * * * * * * * * * * * * * * * * * * * * * * * * * * * * * * * * * * * //

dimensions      [0 1 -1 0 0 0 0];

internalField   nonuniform List<vector> 
6400
(
(8.02707e-06 -7.99199e-06 0)
(3.02999e-05 -1.16431e-05 0)
(4.85537e-05 -8.09257e-06 0)
(5.66138e-05 1.19886e-06 0)
(5.02483e-05 1.42183e-05 0)
(2.69675e-05 2.93913e-05 0)
(-1.44565e-05 4.55711e-05 0)
(-7.4333e-05 6.19442e-05 0)
(-0.000152322 7.79395e-05 0)
(-0.000247627 9.31603e-05 0)
(-0.00035914 0.000107335 0)
(-0.000485541 0.000120281 0)
(-0.000625372 0.000131882 0)
(-0.000777089 0.000142068 0)
(-0.000939106 0.000150803 0)
(-0.00110982 0.000158078 0)
(-0.00128762 0.000163901 0)
(-0.00147094 0.000168294 0)
(-0.00165823 0.000171291 0)
(-0.00184798 0.000172932 0)
(-0.00203874 0.000173262 0)
(-0.0022291 0.000172333 0)
(-0.00241771 0.000170197 0)
(-0.0026033 0.00016691 0)
(-0.00278462 0.00016253 0)
(-0.00296053 0.000157115 0)
(-0.00312992 0.000150725 0)
(-0.00329176 0.000143421 0)
(-0.00344509 0.000135263 0)
(-0.00358901 0.000126312 0)
(-0.00372268 0.000116631 0)
(-0.00384534 0.000106281 0)
(-0.0039563 9.53259e-05 0)
(-0.00405494 8.38285e-05 0)
(-0.00414068 7.18531e-05 0)
(-0.00421306 5.94645e-05 0)
(-0.00427164 4.67284e-05 0)
(-0.0043161 3.37115e-05 0)
(-0.00434616 2.04814e-05 0)
(-0.00436162 7.10701e-06 0)
(-0.00436237 -6.34179e-06 0)
(-0.00434837 -1.97939e-05 0)
(-0.00431964 -3.31769e-05 0)
(-0.00427632 -4.64174e-05 0)
(-0.00421858 -5.94409e-05 0)
(-0.00414671 -7.21716e-05 0)
(-0.00406107 -8.45332e-05 0)
(-0.00396211 -9.64485e-05 0)
(-0.00385035 -0.00010784 0)
(-0.0037264 -0.000118629 0)
(-0.00359097 -0.000128738 0)
(-0.00344484 -0.00013809 0)
(-0.00328887 -0.000146607 0)
(-0.00312402 -0.000154215 0)
(-0.00295132 -0.000160838 0)
(-0.00277187 -0.000166405 0)
(-0.00258688 -0.000170847 0)
(-0.00239759 -0.000174098 0)
(-0.00220535 -0.000176095 0)
(-0.00201155 -0.000176781 0)
(-0.00181764 -0.000176105 0)
(-0.00162515 -0.000174022 0)
(-0.00143562 -0.000170494 0)
(-0.00125066 -0.000165494 0)
(-0.00107187 -0.000159005 0)
(-0.000900907 -0.000151025 0)
(-0.000739389 -0.000141568 0)
(-0.000588929 -0.000130671 0)
(-0.000451093 -0.000118398 0)
(-0.000327369 -0.000104848 0)
(-0.000219129 -9.017e-05 0)
(-0.000127571 -7.45777e-05 0)
(-5.36502e-05 -5.83724e-05 0)
(2.02179e-06 -4.19774e-05 0)
(3.9315e-05 -2.59839e-05 0)
(5.87658e-05 -1.12148e-05 0)
(6.1831e-05 1.19174e-06 0)
(5.12058e-05 9.70192e-06 0)
(3.12577e-05 1.24069e-05 0)
(8.16254e-06 8.09591e-06 0)
(1.18069e-05 -3.02395e-05 0)
(4.55842e-05 -4.51019e-05 0)
(6.53308e-05 -2.699e-05 0)
(5.67599e-05 1.37731e-05 0)
(9.82421e-06 6.89751e-05 0)
(-8.16063e-05 0.000132493 0)
(-0.000220745 0.000199866 0)
(-0.000408588 0.000267893 0)
(-0.000644485 0.000334301 0)
(-0.00092658 0.000397491 0)
(-0.00125215 0.000456356 0)
(-0.00161785 0.000510145 0)
(-0.00201991 0.000558369 0)
(-0.00245429 0.00060073 0)
(-0.00291674 0.000637071 0)
(-0.00340297 0.000667339 0)
(-0.00390863 0.000691561 0)
(-0.00442941 0.000709821 0)
(-0.00496104 0.000722248 0)
(-0.00549938 0.000729003 0)
(-0.00604036 0.000730273 0)
(-0.00658007 0.000726263 0)
(-0.00711475 0.000717192 0)
(-0.00764076 0.000703292 0)
(-0.00815467 0.000684799 0)
(-0.0086532 0.000661959 0)
(-0.00913323 0.000635019 0)
(-0.00959186 0.000604232 0)
(-0.0100263 0.000569852 0)
(-0.0104341 0.000532138 0)
(-0.0108128 0.000491349 0)
(-0.0111603 0.000447746 0)
(-0.0114746 0.000401596 0)
(-0.011754 0.000353165 0)
(-0.0119967 0.000302722 0)
(-0.0122015 0.000250543 0)
(-0.0123672 0.000196903 0)
(-0.0124929 0.000142084 0)
(-0.0125777 8.63719e-05 0)
(-0.0126211 3.00561e-05 0)
(-0.0126228 -2.65683e-05 0)
(-0.0125827 -8.32018e-05 0)
(-0.0125008 -0.00013954 0)
(-0.0123776 -0.000195273 0)
(-0.0122137 -0.000250088 0)
(-0.0120097 -0.000303667 0)
(-0.0117668 -0.000355689 0)
(-0.0114862 -0.00040583 0)
(-0.0111694 -0.000453763 0)
(-0.0108182 -0.000499162 0)
(-0.0104345 -0.000541701 0)
(-0.0100206 -0.000581055 0)
(-0.00957901 -0.000616902 0)
(-0.0091123 -0.000648928 0)
(-0.00862343 -0.000676822 0)
(-0.00811553 -0.000700284 0)
(-0.00759194 -0.000719028 0)
(-0.0070562 -0.000732779 0)
(-0.00651204 -0.00074128 0)
(-0.00596336 -0.000744295 0)
(-0.00541422 -0.000741612 0)
(-0.00486882 -0.000733047 0)
(-0.00433145 -0.000718451 0)
(-0.00380652 -0.000697713 0)
(-0.00329846 -0.000670772 0)
(-0.00281172 -0.000637625 0)
(-0.00235072 -0.00059834 0)
(-0.00191978 -0.000553075 0)
(-0.00152307 -0.000502103 0)
(-0.0011645 -0.000445847 0)
(-0.000847605 -0.000384923 0)
(-0.000575418 -0.000320207 0)
(-0.000350276 -0.000252927 0)
(-0.000173572 -0.000184786 0)
(-4.54354e-05 -0.000118136 0)
(3.56812e-05 -5.62126e-05 0)
(7.35386e-05 -3.43951e-06 0)
(7.47492e-05 3.42207e-05 0)
(4.96809e-05 4.89282e-05 0)
(1.26679e-05 3.11207e-05 0)
(8.4571e-06 -4.86698e-05 0)
(2.82602e-05 -6.49124e-05 0)
(2.1115e-05 -1.93567e-05 0)
(-3.14105e-05 6.84018e-05 0)
(-0.000142747 0.000183275 0)
(-0.000321343 0.000313937 0)
(-0.000571795 0.000451995 0)
(-0.000895653 0.000591303 0)
(-0.00129212 0.000727402 0)
(-0.00175863 0.000857091 0)
(-0.00229128 0.000978101 0)
(-0.00288517 0.00108886 0)
(-0.00353473 0.00118831 0)
(-0.00423388 0.00127578 0)
(-0.00497622 0.0013509 0)
(-0.00575518 0.0014135 0)
(-0.00656409 0.0014636 0)
(-0.00739628 0.00150133 0)
(-0.00824515 0.00152693 0)
(-0.0091042 0.00154069 0)
(-0.00996709 0.00154299 0)
(-0.0108277 0.00153424 0)
(-0.01168 0.00151487 0)
(-0.0125184 0.00148536 0)
(-0.0133374 0.00144619 0)
(-0.0141318 0.00139787 0)
(-0.0148966 0.00134091 0)
(-0.0156273 0.00127583 0)
(-0.0163194 0.00120319 0)
(-0.016969 0.0011235 0)
(-0.0175722 0.00103732 0)
(-0.0181256 0.000945204 0)
(-0.0186261 0.000847708 0)
(-0.0190708 0.000745399 0)
(-0.0194572 0.000638847 0)
(-0.0197831 0.000528632 0)
(-0.0200466 0.000415342 0)
(-0.0202463 0.000299571 0)
(-0.0203809 0.000181926 0)
(-0.0204495 6.30194e-05 0)
(-0.0204517 -5.65235e-05 0)
(-0.0203873 -0.000176069 0)
(-0.0202565 -0.000294974 0)
(-0.0200598 -0.000412584 0)
(-0.0197982 -0.000528238 0)
(-0.019473 -0.000641267 0)
(-0.0190858 -0.000750993 0)
(-0.0186386 -0.000856735 0)
(-0.0181339 -0.000957808 0)
(-0.0175745 -0.00105353 0)
(-0.0169635 -0.00114321 0)
(-0.0163045 -0.00122617 0)
(-0.0156014 -0.00130175 0)
(-0.0148584 -0.00136928 0)
(-0.0140801 -0.00142812 0)
(-0.0132716 -0.00147765 0)
(-0.0124381 -0.00151728 0)
(-0.0115851 -0.00154644 0)
(-0.0107186 -0.00156461 0)
(-0.00984467 -0.0015713 0)
(-0.00896967 -0.00156609 0)
(-0.00810017 -0.00154863 0)
(-0.00724289 -0.0015186 0)
(-0.00640465 -0.00147583 0)
(-0.00559232 -0.0014202 0)
(-0.00481277 -0.00135175 0)
(-0.00407278 -0.00127065 0)
(-0.00337894 -0.00117729 0)
(-0.00273755 -0.00107226 0)
(-0.00215446 -0.000956497 0)
(-0.00163493 -0.000831294 0)
(-0.00118339 -0.00069848 0)
(-0.000803176 -0.000560555 0)
(-0.000496204 -0.000420925 0)
(-0.000262524 -0.0002842 0)
(-9.98022e-05 -0.00015659 0)
(-2.67216e-06 -4.64183e-05 0)
(3.79952e-05 3.52646e-05 0)
(3.61056e-05 7.39749e-05 0)
(1.02562e-05 5.12382e-05 0)
(-5.65962e-07 -5.72409e-05 0)
(-1.14365e-05 -5.70569e-05 0)
(-6.47954e-05 3.28952e-05 0)
(-0.000180757 0.00018478 0)
(-0.000374294 0.000376934 0)
(-0.000654934 0.000592788 0)
(-0.00102791 0.000819807 0)
(-0.00149497 0.00104861 0)
(-0.00205508 0.00127222 0)
(-0.00270503 0.00148555 0)
(-0.00343998 0.00168489 0)
(-0.00425378 0.00186761 0)
(-0.00513939 0.0020319 0)
(-0.00608906 0.00217658 0)
(-0.00709459 0.00230092 0)
(-0.0081475 0.00240459 0)
(-0.00923914 0.00248753 0)
(-0.0103608 0.00254989 0)
(-0.0115039 0.002592 0)
(-0.0126598 0.00261433 0)
(-0.0138203 0.00261745 0)
(-0.0149772 0.002602 0)
(-0.0161225 0.0025687 0)
(-0.0172488 0.00251831 0)
(-0.0183488 0.00245164 0)
(-0.0194155 0.0023695 0)
(-0.0204424 0.00227278 0)
(-0.0214233 0.00216233 0)
(-0.0223524 0.00203906 0)
(-0.0232242 0.00190388 0)
(-0.0240337 0.0017577 0)
(-0.0247762 0.00160147 0)
(-0.0254476 0.00143613 0)
(-0.0260441 0.00126264 0)
(-0.0265623 0.00108197 0)
(-0.0269992 0.000895096 0)
(-0.0273524 0.000703028 0)
(-0.0276198 0.000506774 0)
(-0.0277999 0.000307364 0)
(-0.0278915 0.000105839 0)
(-0.0278939 -9.67393e-05 0)
(-0.0278069 -0.000299295 0)
(-0.0276308 -0.000500737 0)
(-0.0273664 -0.000699958 0)
(-0.0270149 -0.000895837 0)
(-0.0265781 -0.00108724 0)
(-0.0260582 -0.00127303 0)
(-0.025458 -0.00145205 0)
(-0.0247807 -0.00162314 0)
(-0.02403 -0.00178516 0)
(-0.0232102 -0.00193696 0)
(-0.0223261 -0.00207739 0)
(-0.0213828 -0.00220533 0)
(-0.020386 -0.00231969 0)
(-0.0193419 -0.00241938 0)
(-0.0182571 -0.00250339 0)
(-0.0171385 -0.00257072 0)
(-0.0159937 -0.00262044 0)
(-0.0148304 -0.00265169 0)
(-0.0136567 -0.00266371 0)
(-0.012481 -0.00265578 0)
(-0.0113119 -0.00262735 0)
(-0.0101583 -0.00257797 0)
(-0.00902907 -0.00250735 0)
(-0.00793325 -0.00241537 0)
(-0.00687976 -0.00230215 0)
(-0.00587737 -0.00216804 0)
(-0.00493458 -0.00201375 0)
(-0.00405948 -0.00184036 0)
(-0.00325954 -0.00164944 0)
(-0.00254141 -0.00144322 0)
(-0.00191066 -0.00122472 0)
(-0.00137145 -0.000998002 0)
(-0.00092618 -0.000768503 0)
(-0.00057496 -0.000543415 0)
(-0.000315102 -0.000332231 0)
(-0.00014042 -0.000147402 0)
(-4.053e-05 -5.13715e-06 0)
(1.87208e-07 7.36589e-05 0)
(2.18567e-06 6.24674e-05 0)
(-1.33198e-05 -5.17943e-05 0)
(-6.56058e-05 -1.15705e-05 0)
(-0.000178014 0.000143187 0)
(-0.000370892 0.000377968 0)
(-0.000659449 0.000665338 0)
(-0.00105328 0.000983858 0)
(-0.00155756 0.00131696 0)
(-0.00217375 0.00165195 0)
(-0.00290036 0.00197925 0)
(-0.00373352 0.00229166 0)
(-0.00466747 0.00258385 0)
(-0.005695 0.00285196 0)
(-0.00680779 0.00309328 0)
(-0.00799667 0.00330595 0)
(-0.00925192 0.00348882 0)
(-0.0105634 0.00364129 0)
(-0.0119208 0.00376316 0)
(-0.0133137 0.00385457 0)
(-0.0147316 0.00391595 0)
(-0.0161643 0.0039479 0)
(-0.0176016 0.00395122 0)
(-0.0190336 0.00392682 0)
(-0.0204508 0.00387572 0)
(-0.0218439 0.00379902 0)
(-0.023204 0.00369791 0)
(-0.0245227 0.0035736 0)
(-0.0257918 0.00342736 0)
(-0.0270039 0.0032605 0)
(-0.0281517 0.00307435 0)
(-0.0292285 0.00287028 0)
(-0.0302283 0.00264966 0)
(-0.0311452 0.0024139 0)
(-0.0319742 0.00216442 0)
(-0.0327105 0.00190268 0)
(-0.03335 0.00163013 0)
(-0.0338892 0.00134826 0)
(-0.0343249 0.00105858 0)
(-0.0346546 0.000762622 0)
(-0.0348764 0.00046193 0)
(-0.0349889 0.000158085 0)
(-0.0349913 -0.000147313 0)
(-0.0348834 -0.000452641 0)
(-0.0346655 -0.000756252 0)
(-0.0343386 -0.00105648 0)
(-0.0339042 -0.00135164 0)
(-0.0333645 -0.00164002 0)
(-0.0327223 -0.00191991 0)
(-0.031981 -0.00218958 0)
(-0.0311445 -0.00244731 0)
(-0.0302175 -0.00269136 0)
(-0.0292052 -0.00292002 0)
(-0.0281135 -0.00313159 0)
(-0.0269486 -0.0033244 0)
(-0.0257177 -0.0034968 0)
(-0.0244281 -0.00364721 0)
(-0.0230881 -0.00377411 0)
(-0.0217061 -0.00387604 0)
(-0.0202913 -0.00395164 0)
(-0.018853 -0.00399966 0)
(-0.0174012 -0.00401896 0)
(-0.0159461 -0.00400856 0)
(-0.0144981 -0.00396767 0)
(-0.0130678 -0.00389566 0)
(-0.0116662 -0.00379217 0)
(-0.0103039 -0.00365711 0)
(-0.00899183 -0.00349071 0)
(-0.00774034 -0.0032936 0)
(-0.00655963 -0.0030669 0)
(-0.00545928 -0.0028123 0)
(-0.00444816 -0.00253219 0)
(-0.00353412 -0.00222988 0)
(-0.00272375 -0.0019098 0)
(-0.00202201 -0.00157778 0)
(-0.00143186 -0.00124148 0)
(-0.000953755 -0.000910831 0)
(-0.000585111 -0.000598684 0)
(-0.000319661 -0.000321542 0)
(-0.000146775 -0.000100454 0)
(-5.04062e-05 3.79766e-05 0)
(-9.66872e-06 6.06219e-05 0)
(-2.83354e-05 -2.98022e-05 0)
(-0.000128572 7.79003e-05 0)
(-0.000308163 0.00032045 0)
(-0.00058687 0.000658267 0)
(-0.000979267 0.00105915 0)
(-0.00149425 0.0014974 0)
(-0.00213629 0.0019527 0)
(-0.00290617 0.00240924 0)
(-0.00380165 0.00285477 0)
(-0.00481803 0.00327997 0)
(-0.00594864 0.0036778 0)
(-0.00718521 0.00404304 0)
(-0.00851826 0.00437196 0)
(-0.00993741 0.00466195 0)
(-0.0114316 0.00491132 0)
(-0.0129892 0.00511912 0)
(-0.0145984 0.00528498 0)
(-0.0162473 0.005409 0)
(-0.0179239 0.00549165 0)
(-0.0196164 0.00553369 0)
(-0.021313 0.00553613 0)
(-0.0230022 0.00550018 0)
(-0.0246731 0.00542721 0)
(-0.0263149 0.00531869 0)
(-0.0279171 0.00517622 0)
(-0.0294701 0.00500147 0)
(-0.0309643 0.00479618 0)
(-0.032391 0.00456215 0)
(-0.0337418 0.00430122 0)
(-0.0350088 0.00401529 0)
(-0.0361849 0.00370627 0)
(-0.0372634 0.00337612 0)
(-0.0382383 0.00302683 0)
(-0.039104 0.00266041 0)
(-0.0398558 0.00227892 0)
(-0.0404895 0.00188444 0)
(-0.0410014 0.00147907 0)
(-0.0413887 0.00106495 0)
(-0.0416491 0.000644257 0)
(-0.0417809 0.000219201 0)
(-0.0417833 -0.000207983 0)
(-0.0416559 -0.000635025 0)
(-0.0413993 -0.00105962 0)
(-0.0410145 -0.00147945 0)
(-0.0405034 -0.00189216 0)
(-0.0398686 -0.00229536 0)
(-0.0391133 -0.00268667 0)
(-0.0382414 -0.00306368 0)
(-0.0372577 -0.003424 0)
(-0.0361675 -0.00376522 0)
(-0.034977 -0.00408496 0)
(-0.0336929 -0.00438087 0)
(-0.0323228 -0.00465063 0)
(-0.0308747 -0.004892 0)
(-0.0293573 -0.00510278 0)
(-0.0277802 -0.00528087 0)
(-0.0261533 -0.0054243 0)
(-0.024487 -0.0055312 0)
(-0.0227924 -0.00559987 0)
(-0.0210808 -0.0056288 0)
(-0.0193641 -0.00561668 0)
(-0.0176543 -0.00556245 0)
(-0.0159638 -0.00546534 0)
(-0.014305 -0.00532491 0)
(-0.0126902 -0.00514113 0)
(-0.0111318 -0.00491441 0)
(-0.00964182 -0.00464571 0)
(-0.00823181 -0.00433665 0)
(-0.00691271 -0.00398964 0)
(-0.00569462 -0.00360801 0)
(-0.00458651 -0.0031963 0)
(-0.00359596 -0.00276044 0)
(-0.0027288 -0.00230819 0)
(-0.0019887 -0.00184947 0)
(-0.00137675 -0.001397 0)
(-0.000890954 -0.000966861 0)
(-0.000525561 -0.000579339 0)
(-0.000270469 -0.000259779 0)
(-0.000110069 -3.95555e-05 0)
(-2.38554e-05 4.31073e-05 0)
(-4.45896e-05 1.0136e-05 0)
(-0.000196392 0.000215155 0)
(-0.000447924 0.000570327 0)
(-0.000817959 0.00103244 0)
(-0.00131988 0.00156556 0)
(-0.00196134 0.00214037 0)
(-0.00274561 0.00273331 0)
(-0.0036724 0.00332565 0)
(-0.00473845 0.00390265 0)
(-0.00593804 0.00445289 0)
(-0.00726347 0.00496759 0)
(-0.00870544 0.00544016 0)
(-0.0102534 0.00586575 0)
(-0.0118956 0.00624094 0)
(-0.01362 0.00656346 0)
(-0.0154136 0.00683195 0)
(-0.0172633 0.00704582 0)
(-0.0191557 0.00720508 0)
(-0.0210776 0.00731024 0)
(-0.0230156 0.00736221 0)
(-0.0249568 0.00736224 0)
(-0.0268882 0.00731182 0)
(-0.0287974 0.00721269 0)
(-0.0306724 0.00706674 0)
(-0.0325015 0.00687604 0)
(-0.0342736 0.00664273 0)
(-0.0359782 0.0063691 0)
(-0.0376053 0.0060575 0)
(-0.0391454 0.00571033 0)
(-0.0405897 0.00533009 0)
(-0.04193 0.00491932 0)
(-0.043159 0.00448058 0)
(-0.0442696 0.00401652 0)
(-0.0452558 0.00352981 0)
(-0.046112 0.00302315 0)
(-0.0468336 0.0024993 0)
(-0.0474164 0.00196107 0)
(-0.0478573 0.00141129 0)
(-0.0481535 0.000852847 0)
(-0.0483033 0.000288665 0)
(-0.0483058 -0.000278289 0)
(-0.0481605 -0.000845005 0)
(-0.047868 -0.00140844 0)
(-0.0474295 -0.0019655 0)
(-0.0468473 -0.00251308 0)
(-0.0461242 -0.00304804 0)
(-0.0452638 -0.00356722 0)
(-0.0442707 -0.00406745 0)
(-0.0431501 -0.00454556 0)
(-0.0419082 -0.00499839 0)
(-0.0405519 -0.00542281 0)
(-0.0390888 -0.00581572 0)
(-0.0375273 -0.0061741 0)
(-0.0358767 -0.00649499 0)
(-0.0341468 -0.00677553 0)
(-0.0323481 -0.00701299 0)
(-0.0304918 -0.00720479 0)
(-0.0285898 -0.00734853 0)
(-0.0266545 -0.00744201 0)
(-0.0246985 -0.00748329 0)
(-0.0227351 -0.00747071 0)
(-0.0207778 -0.00740296 0)
(-0.0188405 -0.00727909 0)
(-0.0169368 -0.00709863 0)
(-0.0150808 -0.0068616 0)
(-0.0132861 -0.00656865 0)
(-0.0115659 -0.00622113 0)
(-0.00993337 -0.00582123 0)
(-0.00840051 -0.00537214 0)
(-0.00697862 -0.00487824 0)
(-0.00567778 -0.00434533 0)
(-0.00450658 -0.00378098 0)
(-0.0034718 -0.00319484 0)
(-0.00257807 -0.00259914 0)
(-0.0018274 -0.00200923 0)
(-0.00121874 -0.00144423 0)
(-0.000747385 -0.000927803 0)
(-0.000404297 -0.00048896 0)
(-0.000174857 -0.000162896 0)
(-3.93499e-05 8.44895e-06 0)
(-6.13987e-05 6.8649e-05 0)
(-0.000266407 0.000402163 0)
(-0.00059227 0.000896008 0)
(-0.00105663 0.00150454 0)
(-0.00167138 0.002189 0)
(-0.00244252 0.00291719 0)
(-0.00337181 0.00366276 0)
(-0.00445754 0.0044044 0)
(-0.00569515 0.0051251 0)
(-0.00707775 0.00581143 0)
(-0.00859648 0.00645297 0)
(-0.0102409 0.00704172 0)
(-0.0119993 0.00757174 0)
(-0.0138591 0.00803877 0)
(-0.0158066 0.00843989 0)
(-0.017828 0.00877333 0)
(-0.0199088 0.00903823 0)
(-0.0220345 0.00923451 0)
(-0.0241906 0.0093627 0)
(-0.0263625 0.00942385 0)
(-0.0285358 0.00941944 0)
(-0.0306967 0.00935129 0)
(-0.0328313 0.00922151 0)
(-0.0349264 0.00903245 0)
(-0.0369693 0.00878666 0)
(-0.0389478 0.00848683 0)
(-0.0408502 0.00813582 0)
(-0.0426654 0.00773659 0)
(-0.0443831 0.00729217 0)
(-0.0459937 0.00680572 0)
(-0.047488 0.00628045 0)
(-0.0488578 0.00571962 0)
(-0.0500955 0.00512659 0)
(-0.0511944 0.00450475 0)
(-0.0521483 0.00385756 0)
(-0.0529521 0.00318852 0)
(-0.0536014 0.00250121 0)
(-0.0540923 0.00179924 0)
(-0.0544222 0.00108628 0)
(-0.0545891 0.000366061 0)
(-0.0545917 -0.000357633 0)
(-0.0544299 -0.00108097 0)
(-0.0541041 -0.00180008 0)
(-0.0536159 -0.00251104 0)
(-0.0529674 -0.00320989 0)
(-0.052162 -0.00389263 0)
(-0.0512037 -0.00455526 0)
(-0.0500975 -0.00519375 0)
(-0.0488492 -0.0058041 0)
(-0.0474656 -0.00638229 0)
(-0.0459542 -0.00692438 0)
(-0.0443235 -0.00742644 0)
(-0.0425829 -0.00788465 0)
(-0.0407422 -0.00829529 0)
(-0.0388126 -0.00865477 0)
(-0.0368055 -0.00895966 0)
(-0.0347332 -0.00920672 0)
(-0.0326088 -0.00939296 0)
(-0.0304457 -0.00951566 0)
(-0.0282581 -0.0095724 0)
(-0.0260604 -0.00956117 0)
(-0.0238673 -0.00948037 0)
(-0.021694 -0.0093289 0)
(-0.0195557 -0.00910622 0)
(-0.0174674 -0.00881246 0)
(-0.0154441 -0.00844853 0)
(-0.0135005 -0.00801619 0)
(-0.0116506 -0.00751826 0)
(-0.00990784 -0.00695875 0)
(-0.00828459 -0.00634313 0)
(-0.00679204 -0.00567853 0)
(-0.00543989 -0.00497411 0)
(-0.00423602 -0.00424142 0)
(-0.00318619 -0.00349487 0)
(-0.00229361 -0.0027523 0)
(-0.0015585 -0.00203556 0)
(-0.000977561 -0.00137126 0)
(-0.000543197 -0.000791416 0)
(-0.000242086 -0.000334178 0)
(-5.54609e-05 -4.4051e-05 0)
(-7.83199e-05 0.000145861 0)
(-0.000336875 0.000639637 0)
(-0.00073784 0.00129894 0)
(-0.00129774 0.00207662 0)
(-0.00202684 0.00293191 0)
(-0.00292927 0.00383035 0)
(-0.00400501 0.00474331 0)
(-0.00525067 0.00564726 0)
(-0.00666021 0.00652316 0)
(-0.00822534 0.00735577 0)
(-0.00993595 0.00813309 0)
(-0.0117804 0.00884583 0)
(-0.0137458 0.00948696 0)
(-0.0158184 0.0100514 0)
(-0.0179835 0.0105355 0)
(-0.020226 0.0109372 0)
(-0.0225303 0.0112553 0)
(-0.024881 0.0114896 0)
(-0.0272621 0.0116406 0)
(-0.029658 0.0117096 0)
(-0.0320534 0.0116983 0)
(-0.0344331 0.0116089 0)
(-0.0367822 0.0114437 0)
(-0.0390865 0.0112058 0)
(-0.0413323 0.0108981 0)
(-0.0435061 0.0105239 0)
(-0.0455956 0.0100867 0)
(-0.0475887 0.00959007 0)
(-0.0494741 0.00903781 0)
(-0.0512414 0.00843373 0)
(-0.0528808 0.00778179 0)
(-0.0543833 0.00708603 0)
(-0.0557408 0.00635054 0)
(-0.0569457 0.00557954 0)
(-0.0579917 0.00477727 0)
(-0.058873 0.00394808 0)
(-0.0595848 0.00309636 0)
(-0.0601231 0.00222659 0)
(-0.0604849 0.00134331 0)
(-0.060668 0.000451115 0)
(-0.0606712 -0.000445325 0)
(-0.0604941 -0.00134128 0)
(-0.0601375 -0.00223197 0)
(-0.0596028 -0.00311255 0)
(-0.0588925 -0.00397814 0)
(-0.0580102 -0.00482383 0)
(-0.0569603 -0.00564468 0)
(-0.0557481 -0.00643574 0)
(-0.0543801 -0.00719207 0)
(-0.0528633 -0.00790876 0)
(-0.0512062 -0.00858094 0)
(-0.0494179 -0.00920382 0)
(-0.0475083 -0.00977271 0)
(-0.0454884 -0.0102831 0)
(-0.04337 -0.0107305 0)
(-0.0411656 -0.0111108 0)
(-0.0388885 -0.01142 0)
(-0.0365527 -0.0116546 0)
(-0.0341729 -0.0118112 0)
(-0.0317641 -0.0118869 0)
(-0.0293421 -0.0118794 0)
(-0.0269228 -0.0117866 0)
(-0.0245225 -0.0116074 0)
(-0.0221575 -0.0113412 0)
(-0.0198441 -0.0109882 0)
(-0.0175985 -0.0105495 0)
(-0.0154365 -0.0100274 0)
(-0.0133734 -0.00942533 0)
(-0.0114237 -0.00874818 0)
(-0.00960094 -0.00800246 0)
(-0.00791755 -0.00719663 0)
(-0.00638439 -0.00634141 0)
(-0.00501057 -0.00545017 0)
(-0.00380317 -0.00453937 0)
(-0.00276682 -0.0036291 0)
(-0.00190329 -0.00274363 0)
(-0.0012109 -0.00191205 0)
(-0.000683769 -0.00116882 0)
(-0.000309992 -0.000554273 0)
(-7.17376e-05 -0.000114579 0)
(-9.50775e-05 0.000241583 0)
(-0.000406703 0.000927463 0)
(-0.000882472 0.00177934 0)
(-0.0015379 0.0027493 0)
(-0.00238159 0.0037952 0)
(-0.00341572 0.0048809 0)
(-0.00463828 0.00597592 0)
(-0.00604406 0.0070549 0)
(-0.00762532 0.00809703 0)
(-0.00937227 0.00908548 0)
(-0.0112734 0.0100068 0)
(-0.0133157 0.0108505 0)
(-0.0154852 0.0116086 0)
(-0.0177668 0.012275 0)
(-0.0201449 0.0128458 0)
(-0.0226031 0.0133181 0)
(-0.0251249 0.0136908 0)
(-0.0276935 0.0139634 0)
(-0.0302922 0.0141366 0)
(-0.0329042 0.0142116 0)
(-0.0355131 0.0141906 0)
(-0.0381028 0.0140759 0)
(-0.0406574 0.0138705 0)
(-0.0431617 0.0135777 0)
(-0.045601 0.0132012 0)
(-0.0479612 0.0127449 0)
(-0.0502287 0.0122129 0)
(-0.0523908 0.0116095 0)
(-0.0544355 0.0109392 0)
(-0.0563516 0.0102065 0)
(-0.0581286 0.00941629 0)
(-0.059757 0.00857331 0)
(-0.0612278 0.00768255 0)
(-0.0625334 0.00674904 0)
(-0.0636665 0.00577792 0)
(-0.0646213 0.0047744 0)
(-0.0653925 0.0037438 0)
(-0.0659758 0.00269149 0)
(-0.0663681 0.00162294 0)
(-0.0665669 0.000543703 0)
(-0.0665711 -0.000540604 0)
(-0.0663802 -0.00162429 0)
(-0.0659949 -0.00270158 0)
(-0.0654169 -0.00376668 0)
(-0.0646488 -0.00481369 0)
(-0.0636944 -0.00583672 0)
(-0.0625583 -0.00682983 0)
(-0.0612465 -0.00778707 0)
(-0.0597655 -0.00870252 0)
(-0.0581232 -0.00957028 0)
(-0.0563284 -0.0103845 0)
(-0.0543908 -0.0111395 0)
(-0.0523211 -0.0118296 0)
(-0.0501311 -0.0124494 0)
(-0.0478332 -0.0129937 0)
(-0.0454409 -0.0134574 0)
(-0.0429683 -0.0138358 0)
(-0.0404304 -0.0141247 0)
(-0.0378427 -0.0143202 0)
(-0.0352215 -0.0144188 0)
(-0.0325835 -0.0144177 0)
(-0.0299456 -0.0143147 0)
(-0.0273253 -0.0141083 0)
(-0.02474 -0.013798 0)
(-0.0222071 -0.0133839 0)
(-0.0197441 -0.0128676 0)
(-0.0173677 -0.0122517 0)
(-0.0150945 -0.0115403 0)
(-0.0129402 -0.0107391 0)
(-0.0109195 -0.00985572 0)
(-0.00904599 -0.00889984 0)
(-0.00733194 -0.0078837 0)
(-0.00578781 -0.00682234 0)
(-0.00442215 -0.00573412 0)
(-0.00324119 -0.00464112 0)
(-0.00224843 -0.00356974 0)
(-0.00144401 -0.00255112 0)
(-0.00082383 -0.00162164 0)
(-0.000377462 -0.000823217 0)
(-8.78992e-05 -0.000203002 0)
(-0.000111511 0.000355441 0)
(-0.000475249 0.001265 0)
(-0.00102485 0.00233667 0)
(-0.00177499 0.00352225 0)
(-0.00273266 0.00477876 0)
(-0.00389802 0.00606886 0)
(-0.00526701 0.00736063 0)
(-0.00683246 0.00862721 0)
(-0.00858481 0.00984633 0)
(-0.0105126 0.0109997 0)
(-0.0126028 0.0120728 0)
(-0.0148412 0.0130538 0)
(-0.0172122 0.0139339 0)
(-0.0196998 0.0147064 0)
(-0.022287 0.0153667 0)
(-0.0249566 0.0159116 0)
(-0.0276907 0.0163395 0)
(-0.0304718 0.0166502 0)
(-0.0332819 0.0168442 0)
(-0.0361034 0.016923 0)
(-0.0389189 0.0168889 0)
(-0.0417113 0.0167448 0)
(-0.0444639 0.016494 0)
(-0.0471606 0.0161405 0)
(-0.0497857 0.0156884 0)
(-0.0523244 0.0151423 0)
(-0.0547624 0.014507 0)
(-0.0570862 0.0137876 0)
(-0.0592832 0.0129893 0)
(-0.0613413 0.0121175 0)
(-0.0632496 0.0111777 0)
(-0.0649979 0.0101758 0)
(-0.066577 0.00911752 0)
(-0.0679784 0.00800881 0)
(-0.0691948 0.00685573 0)
(-0.0702197 0.00566443 0)
(-0.0710477 0.0044412 0)
(-0.0716743 0.00319237 0)
(-0.072096 0.00192441 0)
(-0.0723103 0.000643858 0)
(-0.072316 -0.000642644 0)
(-0.0721125 -0.00192838 0)
(-0.0717006 -0.00320655 0)
(-0.0710821 -0.0044703 0)
(-0.0702597 -0.0057127 0)
(-0.0692374 -0.00692678 0)
(-0.0680202 -0.00810555 0)
(-0.0666141 -0.00924202 0)
(-0.0650263 -0.0103292 0)
(-0.0632649 -0.0113602 0)
(-0.0613394 -0.012328 0)
(-0.0592598 -0.0132261 0)
(-0.0570377 -0.0140477 0)
(-0.0546852 -0.0147866 0)
(-0.0522157 -0.0154364 0)
(-0.0496432 -0.0159915 0)
(-0.0469829 -0.0164463 0)
(-0.0442504 -0.0167958 0)
(-0.0414623 -0.0170354 0)
(-0.0386358 -0.0171612 0)
(-0.0357883 -0.0171699 0)
(-0.032938 -0.0170588 0)
(-0.0301034 -0.0168264 0)
(-0.0273028 -0.0164719 0)
(-0.0245549 -0.0159958 0)
(-0.021878 -0.0153996 0)
(-0.0192903 -0.0146866 0)
(-0.0168094 -0.0138613 0)
(-0.0144522 -0.0129304 0)
(-0.0122347 -0.0119023 0)
(-0.0101718 -0.0107881 0)
(-0.00827716 -0.00960126 0)
(-0.00656273 -0.00835845 0)
(-0.00503868 -0.0070797 0)
(-0.00371299 -0.00578889 0)
(-0.00259101 -0.00451418 0)
(-0.00167479 -0.00328845 0)
(-0.000962071 -0.00214957 0)
(-0.000443848 -0.00114053 0)
(-0.000103783 -0.000308998 0)
(-0.000127539 0.000486965 0)
(-0.000542177 0.00165131 0)
(-0.00116427 0.00296985 0)
(-0.00200781 0.00439447 0)
(-0.00307828 0.00588176 0)
(-0.00437383 0.00739353 0)
(-0.00588832 0.0088968 0)
(-0.00761254 0.0103635 0)
(-0.00953502 0.0117702 0)
(-0.0116426 0.0130975 0)
(-0.0139205 0.0143296 0)
(-0.0163531 0.0154539 0)
(-0.0189236 0.0164607 0)
(-0.0216145 0.0173428 0)
(-0.0244078 0.0180948 0)
(-0.0272851 0.0187135 0)
(-0.0302276 0.019197 0)
(-0.0332165 0.0195449 0)
(-0.036233 0.019758 0)
(-0.0392586 0.0198379 0)
(-0.042275 0.0197872 0)
(-0.0452641 0.0196092 0)
(-0.0482084 0.0193078 0)
(-0.0510911 0.0188874 0)
(-0.0538956 0.0183528 0)
(-0.0566065 0.0177093 0)
(-0.0592087 0.0169624 0)
(-0.061688 0.016118 0)
(-0.0640312 0.015182 0)
(-0.0662258 0.0141608 0)
(-0.0682601 0.0130608 0)
(-0.0701236 0.0118887 0)
(-0.0718064 0.0106511 0)
(-0.0732999 0.00935506 0)
(-0.0745962 0.00800751 0)
(-0.0756886 0.00661562 0)
(-0.0765713 0.00518667 0)
(-0.0772397 0.00372803 0)
(-0.0776901 0.0022472 0)
(-0.0779199 0.000751764 0)
(-0.0779276 -0.000750563 0)
(-0.0777129 -0.00225199 0)
(-0.0772764 -0.00374463 0)
(-0.07662 -0.00522052 0)
(-0.0757466 -0.00667164 0)
(-0.0746602 -0.0080899 0)
(-0.0733661 -0.00946721 0)
(-0.0718707 -0.0107954 0)
(-0.0701813 -0.0120665 0)
(-0.0683065 -0.0132724 0)
(-0.0662562 -0.0144052 0)
(-0.064041 -0.0154571 0)
(-0.0616727 -0.0164204 0)
(-0.0591644 -0.0172878 0)
(-0.0565298 -0.0180521 0)
(-0.0537839 -0.0187066 0)
(-0.0509422 -0.019245 0)
(-0.0480215 -0.0196615 0)
(-0.045039 -0.0199508 0)
(-0.0420127 -0.0201084 0)
(-0.0389611 -0.0201305 0)
(-0.0359033 -0.0200141 0)
(-0.0328587 -0.0197573 0)
(-0.0298467 -0.0193593 0)
(-0.0268871 -0.0188206 0)
(-0.0239993 -0.0181431 0)
(-0.0212025 -0.0173301 0)
(-0.0185156 -0.016387 0)
(-0.0159568 -0.0153211 0)
(-0.0135434 -0.0141418 0)
(-0.0112917 -0.0128612 0)
(-0.00921679 -0.0114941 0)
(-0.00733231 -0.0100585 0)
(-0.00565011 -0.00857612 0)
(-0.00418002 -0.00707225 0)
(-0.00292934 -0.0055766 0)
(-0.00190208 -0.00412345 0)
(-0.0010978 -0.0027518 0)
(-0.000508825 -0.00150542 0)
(-0.000119309 -0.000432152 0)
(-0.000143131 0.000635652 0)
(-0.000607362 0.0020853 0)
(-0.00130043 0.00367755 0)
(-0.0022358 0.00536462 0)
(-0.00341756 0.00710293 0)
(-0.00484193 0.00885376 0)
(-0.00650066 0.0105834 0)
(-0.00838245 0.0122628 0)
(-0.0104739 0.0138677 0)
(-0.0127599 0.0153776 0)
(-0.0152242 0.0167758 0)
(-0.0178495 0.0180491 0)
(-0.0206175 0.0191869 0)
(-0.0235096 0.0201815 0)
(-0.0265065 0.0210273 0)
(-0.0295885 0.0217205 0)
(-0.0327359 0.0222594 0)
(-0.0359289 0.0226434 0)
(-0.0391479 0.0228735 0)
(-0.0423732 0.0229515 0)
(-0.0455857 0.0228804 0)
(-0.0487665 0.0226639 0)
(-0.0518975 0.0223064 0)
(-0.0549609 0.0218129 0)
(-0.0579395 0.0211889 0)
(-0.0608172 0.0204403 0)
(-0.0635783 0.0195736 0)
(-0.0662081 0.0185952 0)
(-0.0686926 0.0175122 0)
(-0.0710189 0.0163317 0)
(-0.0731749 0.015061 0)
(-0.0751494 0.0137078 0)
(-0.0769324 0.0122797 0)
(-0.0785147 0.0107846 0)
(-0.0798882 0.00923062 0)
(-0.0810459 0.00762588 0)
(-0.0819818 0.00597872 0)
(-0.082691 0.00429757 0)
(-0.0831696 0.00259102 0)
(-0.083415 0.00086775 0)
(-0.0834256 -0.000863419 0)
(-0.0832009 -0.00259357 0)
(-0.0827417 -0.00431368 0)
(-0.0820498 -0.00601464 0)
(-0.0811282 -0.00768728 0)
(-0.0799813 -0.00932236 0)
(-0.0786142 -0.0109106 0)
(-0.0770337 -0.0124428 0)
(-0.0752474 -0.0139096 0)
(-0.0732643 -0.0153019 0)
(-0.0710944 -0.0166106 0)
(-0.0687489 -0.0178268 0)
(-0.0662401 -0.0189418 0)
(-0.0635814 -0.0199472 0)
(-0.0607874 -0.0208348 0)
(-0.0578734 -0.0215969 0)
(-0.0548558 -0.0222264 0)
(-0.0517519 -0.0227166 0)
(-0.0485799 -0.0230615 0)
(-0.0453584 -0.0232559 0)
(-0.042107 -0.0232954 0)
(-0.0388455 -0.0231768 0)
(-0.0355942 -0.0228978 0)
(-0.0323738 -0.0224574 0)
(-0.0292049 -0.0218561 0)
(-0.0261082 -0.021096 0)
(-0.023104 -0.0201808 0)
(-0.0202124 -0.0191163 0)
(-0.0174528 -0.0179105 0)
(-0.0148442 -0.0165736 0)
(-0.0124041 -0.0151187 0)
(-0.0101493 -0.0135619 0)
(-0.0080951 -0.0119224 0)
(-0.00625518 -0.010223 0)
(-0.0046413 -0.00849068 0)
(-0.00326272 -0.00675624 0)
(-0.00212543 -0.00505516 0)
(-0.00123078 -0.00342732 0)
(-0.00057229 -0.00191699 0)
(-0.000134452 -0.000572016 0)
(-0.000158292 0.000801002 0)
(-0.000670819 0.00256586 0)
(-0.0014333 0.00445835 0)
(-0.00245884 0.00643116 0)
(-0.00375026 0.00844075 0)
(-0.00530188 0.0104481 0)
(-0.0071034 0.012419 0)
(-0.00914143 0.0143239 0)
(-0.0114005 0.0161374 0)
(-0.0138638 0.0178386 0)
(-0.0165131 0.01941 0)
(-0.0193295 0.0208377 0)
(-0.0222935 0.0221107 0)
(-0.0253849 0.0232206 0)
(-0.0285831 0.0241617 0)
(-0.0318675 0.02493 0)
(-0.0352171 0.0255237 0)
(-0.0386113 0.0259423 0)
(-0.0420292 0.0261869 0)
(-0.0454506 0.0262598 0)
(-0.0488554 0.0261642 0)
(-0.052224 0.0259043 0)
(-0.0555373 0.025485 0)
(-0.0587771 0.0249121 0)
(-0.0619255 0.0241917 0)
(-0.0649656 0.0233306 0)
(-0.0678812 0.0223358 0)
(-0.0706571 0.0212149 0)
(-0.0732788 0.0199756 0)
(-0.0757329 0.0186261 0)
(-0.0780068 0.0171746 0)
(-0.0800891 0.0156297 0)
(-0.0819693 0.0140002 0)
(-0.0836379 0.0122949 0)
(-0.0850865 0.0105229 0)
(-0.0863078 0.00869356 0)
(-0.0872956 0.0068162 0)
(-0.0880448 0.00490038 0)
(-0.0885515 0.0029558 0)
(-0.0888127 0.00099228 0)
(-0.088827 -0.00098021 0)
(-0.0885937 -0.00295159 0)
(-0.0881136 -0.00491167 0)
(-0.0873885 -0.00685015 0)
(-0.0864216 -0.00875666 0)
(-0.0852172 -0.0106208 0)
(-0.0837807 -0.012432 0)