/*--------------------------------*- C++ -*----------------------------------*\
| =========                 |                                                 |
| \\      /  F ield         | OpenFOAM: The Open Source CFD Toolbox           |
|  \\    /   O peration     | Version:  4.1                                   |
|   \\  /    A nd           | Web:      www.OpenFOAM.org                      |
|    \\/     M anipulation  |                                                 |
\*---------------------------------------------------------------------------*/
FoamFile
{
    version     2.0;
    format      ascii;
    class       volVectorField;
    location    "12.25";
    object      U;
}
// * * * * * * * * * * * * * * * * * * * * * * * * * * * * * * * * * * * * * //

dimensions      [0 1 -1 0 0 0 0];

internalField   nonuniform List<vector> 
400
(
(0.000201334 -0.000198484 0)
(-9.00394e-05 8.4473e-05 0)
(-0.00154584 0.000333606 0)
(-0.00375764 0.00051725 0)
(-0.00648844 0.000606845 0)
(-0.00939735 0.000636965 0)
(-0.0122577 0.000612522 0)
(-0.0148241 0.000537697 0)
(-0.0168673 0.000406288 0)
(-0.0181494 0.000216538 0)
(-0.0184629 -2.48079e-05 0)
(-0.0176704 -0.000295277 0)
(-0.0157577 -0.000556752 0)
(-0.0128832 -0.000758058 0)
(-0.00938285 -0.000849652 0)
(-0.00576739 -0.000791883 0)
(-0.00258838 -0.000587275 0)
(-0.000402229 -0.000257951 0)
(0.000561131 7.39537e-05 0)
(0.000317494 0.000302573 0)
(-8.92236e-05 8.06595e-05 0)
(-0.00206859 0.00194074 0)
(-0.00650912 0.00367247 0)
(-0.0125007 0.00491177 0)
(-0.0195336 0.00554397 0)
(-0.0268691 0.00566046 0)
(-0.0339457 0.00530013 0)
(-0.0401701 0.00448266 0)
(-0.0449934 0.00320707 0)
(-0.0478889 0.00150507 0)
(-0.0484311 -0.000525155 0)
(-0.0463736 -0.00269187 0)
(-0.0417416 -0.00471318 0)
(-0.0349139 -0.00624851 0)
(-0.0266234 -0.00697444 0)
(-0.0179447 -0.00666604 0)
(-0.0100411 -0.00532771 0)
(-0.00408927 -0.00319361 0)
(-0.000616112 -0.00093797 0)
(0.000179258 0.000593638 0)
(-0.000422011 0.00167627 0)
(-0.00438973 0.00651239 0)
(-0.011861 0.0105941 0)
(-0.0213339 0.0133943 0)
(-0.0320826 0.0147626 0)
(-0.0430855 0.01484 0)
(-0.0535539 0.0137041 0)
(-0.0626574 0.0114031 0)
(-0.069638 0.00797472 0)
(-0.0737898 0.00354189 0)
(-0.0745584 -0.00161981 0)
(-0.0716309 -0.00703735 0)
(-0.0650421 -0.0120523 0)
(-0.0552738 -0.0158923 0)
(-0.0432654 -0.0178241 0)
(-0.0304283 -0.0173387 0)
(-0.018339 -0.0144143 0)
(-0.00869051 -0.00957895 0)
(-0.00234552 -0.00420769 0)
(-1.33231e-05 -3.15709e-06 0)
(-0.00074914 0.0044629 0)
(-0.00667209 0.0135034 0)
(-0.01705 0.0205155 0)
(-0.0297278 0.0250854 0)
(-0.0437738 0.0271704 0)
(-0.057944 0.0270048 0)
(-0.0713077 0.0247235 0)
(-0.0828892 0.0204151 0)
(-0.0918071 0.0141743 0)
(-0.0972418 0.00623897 0)
(-0.0985381 -0.00290932 0)
(-0.0952914 -0.0124821 0)
(-0.0874599 -0.0213972 0)
(-0.0754905 -0.0283784 0)
(-0.0603677 -0.0321778 0)
(-0.0437073 -0.0318754 0)
(-0.0274393 -0.0273073 0)
(-0.0138483 -0.0192431 0)
(-0.00428035 -0.00977963 0)
(-0.000209166 -0.0015142 0)
(-0.00102783 0.0084094 0)
(-0.00871277 0.0228764 0)
(-0.0217392 0.0333785 0)
(-0.0373131 0.0398872 0)
(-0.0543087 0.0426374 0)
(-0.0713029 0.0420295 0)
(-0.0872855 0.0382899 0)
(-0.101206 0.0315595 0)
(-0.112121 0.0219943 0)
(-0.119132 0.00994208 0)
(-0.121479 -0.00392143 0)
(-0.118609 -0.0185037 0)
(-0.110295 -0.0322891 0)
(-0.0967968 -0.0434402 0)
(-0.0789847 -0.0500622 0)
(-0.0585633 -0.0506192 0)
(-0.0378022 -0.0445743 0)
(-0.0197337 -0.0327812 0)
(-0.0064175 -0.0180573 0)
(-0.000390063 -0.00403331 0)
(-0.00126272 0.013327 0)
(-0.0104494 0.0342837 0)
(-0.0257581 0.0487587 0)
(-0.0438342 0.0573408 0)
(-0.0633874 0.0607135 0)
(-0.0828629 0.059532 0)
(-0.101225 0.0541583 0)
(-0.117411 0.0447955 0)
(-0.130465 0.0316456 0)
(-0.139443 0.0151268 0)
(-0.143473 -0.00395098 0)
(-0.141804 -0.0242578 0)
(-0.133918 -0.0438877 0)
(-0.119737 -0.0604168 0)
(-0.0998215 -0.0711592 0)
(-0.0757897 -0.073679 0)
(-0.0501733 -0.0666839 0)
(-0.0268951 -0.0507938 0)
(-0.00902635 -0.0294838 0)
(-0.000606389 -0.00767659 0)
(-0.0014433 0.0190548 0)
(-0.0118118 0.0473992 0)
(-0.0289404 0.0662687 0)
(-0.049024 0.0770582 0)
(-0.0706469 0.0810541 0)
(-0.0921742 0.0792566 0)
(-0.112594 0.0722128 0)
(-0.130885 0.0601957 0)
(-0.146135 0.0434274 0)
(-0.157394 0.0223336 0)
(-0.163699 -0.00223709 0)
(-0.164089 -0.0288312 0)
(-0.157692 -0.0552534 0)
(-0.14395 -0.0785265 0)
(-0.122896 -0.0950591 0)
(-0.0957867 -0.101184 0)
(-0.065185 -0.0943027 0)
(-0.035927 -0.0742352 0)
(-0.0124285 -0.0448747 0)
(-0.000907411 -0.0127699 0)
(-0.00156429 0.0253711 0)
(-0.0127446 0.0617751 0)
(-0.0311402 0.0853629 0)
(-0.0526182 0.0984713 0)
(-0.0756763 0.103122 0)
(-0.0986512 0.100746 0)
(-0.120599 0.0921303 0)
(-0.140597 0.0776291 0)
(-0.157834 0.0574571 0)
(-0.17142 0.0319749 0)
(-0.180367 0.00195357 0)
(-0.183549 -0.0311858 0)
(-0.179751 -0.0651302 0)
(-0.167858 -0.0964843 0)
(-0.147164 -0.120742 0)
(-0.118188 -0.132716 0)
(-0.0830826 -0.127805 0)
(-0.0473449 -0.10411 0)
(-0.0169864 -0.0652899 0)
(-0.00136007 -0.0198085 0)
(-0.00162292 0.0320478 0)
(-0.0132146 0.0769299 0)
(-0.0322534 0.105432 0)
(-0.054396 0.120912 0)
(-0.0780849 0.126239 0)
(-0.101678 0.123356 0)
(-0.124337 0.113351 0)
(-0.145297 0.0966811 0)
(-0.163913 0.0735387 0)
(-0.179443 0.044158 0)
(-0.190977 0.00911846 0)
(-0.197349 -0.0303679 0)
(-0.197102 -0.0721077 0)
(-0.188595 -0.112553 0)
(-0.170261 -0.146467 0)
(-0.141489 -0.167034 0)
(-0.103372 -0.166947 0)
(-0.0613852 -0.141264 0)
(-0.0230612 -0.0920075 0)
(-0.00204631 -0.0295083 0)
(-0.00162825 0.038834 0)
(-0.0132516 0.0923219 0)
(-0.032287 0.125763 0)
(-0.0542764 0.143551 0)
(-0.0776272 0.149504 0)
(-0.100772 0.146156 0)
(-0.123016 0.134964 0)
(-0.143804 0.116526 0)
(-0.162732 0.0910186 0)
(-0.179298 0.0585176 0)
(-0.192809 0.019325 0)
(-0.202224 -0.0257215 0)
(-0.206047 -0.0748191 0)
(-0.202281 -0.124655 0)
(-0.188549 -0.169691 0)
(-0.162839 -0.201733 0)
(-0.124483 -0.210313 0)
(-0.0777606 -0.185878 0)
(-0.0309795 -0.126294 0)
(-0.00307972 -0.0427997 0)
(-0.00161773 0.0455605 0)
(-0.0129941 0.107491 0)
(-0.031426 0.145662 0)
(-0.0524078 0.16549 0)
(-0.0743246 0.171865 0)
(-0.0957538 0.167976 0)
(-0.116185 0.155739 0)
(-0.135337 0.135933 0)
(-0.153099 0.108757 0)
(-0.169305 0.0741286 0)
(-0.183598 0.0320371 0)
(-0.195251 -0.0171693 0)
(-0.202979 -0.0723247 0)
(-0.204726 -0.130796 0)
(-0.197586 -0.187391 0)
(-0.178165 -0.233253 0)
(-0.143545 -0.254906 0)
(-0.0953295 -0.236849 0)
(-0.0409324 -0.169047 0)
(-0.00461804 -0.0608382 0)
(-0.0016613 0.0520992 0)
(-0.012756 0.122 0)
(-0.030144 0.164397 0)
(-0.0493048 0.185712 0)
(-0.068615 0.192078 0)
(-0.0869191 0.187407 0)
(-0.103951 0.174153 0)
(-0.119772 0.153326 0)
(-0.134616 0.125189 0)
(-0.148709 0.0895407 0)
(-0.162119 0.0460714 0)
(-0.174571 -0.00539387 0)
(-0.185234 -0.0644768 0)
(-0.192351 -0.129608 0)
(-0.192977 -0.19668 0)
(-0.182726 -0.257313 0)
(-0.156472 -0.296055 0)
(-0.111779 -0.291123 0)
(-0.0527736 -0.220186 0)
(-0.00687198 -0.0849351 0)
(-0.00192085 0.0587743 0)
(-0.0130859 0.135913 0)
(-0.0292099 0.181591 0)
(-0.0458135 0.203354 0)
(-0.0612918 0.20892 0)
(-0.0749692 0.202963 0)
(-0.0869079 0.18855 0)
(-0.0976045 0.166937 0)
(-0.107663 0.138485 0)
(-0.117727 0.102914 0)
(-0.12831 0.0596755 0)
(-0.139657 0.00812022 0)
(-0.151554 -0.0521688 0)
(-0.162867 -0.12089 0)
(-0.171204 -0.19563 0)
(-0.171903 -0.269821 0)
(-0.158384 -0.327953 0)
(-0.123456 -0.343371 0)
(-0.065652 -0.277897 0)
(-0.0100888 -0.11643 0)
(-0.00264726 0.0658559 0)
(-0.0149738 0.149125 0)
(-0.0299388 0.196604 0)
(-0.043315 0.217237 0)
(-0.0535829 0.220861 0)
(-0.0609582 0.212913 0)
(-0.0659565 0.197098 0)
(-0.0696384 0.174872 0)
(-0.0729877 0.146694 0)
(-0.0770512 0.112231 0)
(-0.0827553 0.0707695 0)
(-0.0908425 0.0213064 0)
(-0.101776 -0.0372315 0)
(-0.115236 -0.105755 0)
(-0.12993 -0.183825 0)
(-0.141768 -0.267828 0)
(-0.144152 -0.344632 0)
(-0.125425 -0.386164 0)
(-0.0775054 -0.337761 0)
(-0.0144727 -0.156197 0)
(-0.00438902 0.0756223 0)
(-0.0197135 0.163349 0)
(-0.0336092 0.209972 0)
(-0.0428434 0.226719 0)
(-0.0461134 0.226549 0)
(-0.0451775 0.215527 0)
(-0.0411415 0.197896 0)
(-0.0357804 0.175156 0)
(-0.0304407 0.147776 0)
(-0.0265348 0.115354 0)
(-0.0253258 0.0770687 0)
(-0.0279756 0.0317085 0)
(-0.0355779 -0.0222196 0)
(-0.048659 -0.0865376 0)
(-0.0673731 -0.162622 0)
(-0.0889345 -0.250362 0)
(-0.108563 -0.341307 0)
(-0.111516 -0.411017 0)
(-0.0843485 -0.392404 0)
(-0.0199763 -0.204228 0)
(-0.00800181 0.0883077 0)
(-0.0299137 0.177689 0)
(-0.0421962 0.219674 0)
(-0.0452545 0.229112 0)
(-0.0383077 0.223145 0)
(-0.0259471 0.208121 0)
(-0.00998879 0.188512 0)
(0.00692291 0.16559 0)
(0.0231611 0.139682 0)
(0.0370348 0.110279 0)
(0.047063 0.0764935 0)
(0.0517897 0.0370546 0)
(0.0496225 -0.00967906 0)
(0.0393139 -0.0659729 0)
(0.0192134 -0.134454 0)
(-0.00958348 -0.218185 0)
(-0.0458661 -0.314812 0)
(-0.0740966 -0.408984 0)
(-0.0795332 -0.430531 0)
(-0.0257285 -0.257301 0)
(-0.0146177 0.114337 0)
(-0.0451945 0.197739 0)
(-0.051545 0.22694 0)
(-0.0431406 0.222624 0)
(-0.0204845 0.207684 0)
(0.00764464 0.18754 0)
(0.0389174 0.165975 0)
(0.0698927 0.143518 0)
(0.0988853 0.120044 0)
(0.124116 0.0948482 0)
(0.144069 0.0669754 0)
(0.157175 0.0352114 0)
(0.161562 -0.0020126 0)
(0.155485 -0.0469259 0)
(0.136079 -0.102664 0)
(0.102744 -0.174259 0)
(0.0520526 -0.265321 0)
(-0.00248788 -0.373589 0)
(-0.0516761 -0.439192 0)
(-0.028493 -0.309995 0)
(-0.0256193 0.14187 0)
(-0.0655807 0.209204 0)
(-0.047934 0.216827 0)
(-0.0144807 0.195633 0)
(0.0342809 0.171969 0)
(0.0842062 0.14856 0)
(0.133948 0.127146 0)
(0.180137 0.10724 0)
(0.221718 0.0880977 0)
(0.257348 0.0688467 0)
(0.285866 0.0485356 0)
(0.305905 0.0261405 0)
(0.315658 0.000374724 0)
(0.313156 -0.0304988 0)
(0.2949 -0.0693109 0)
(0.258819 -0.121086 0)
(0.19714 -0.193251 0)
(0.118803 -0.296443 0)
(0.0178345 -0.395488 0)
(-0.0171655 -0.338999 0)
(-0.0187503 0.214571 0)
(-0.0197984 0.215328 0)
(0.0566446 0.181591 0)
(0.128727 0.140412 0)
(0.205646 0.110552 0)
(0.273881 0.0882937 0)
(0.335502 0.0710339 0)
(0.389094 0.057073 0)
(0.435005 0.0449987 0)
(0.472975 0.0338547 0)
(0.502615 0.0228245 0)
(0.523145 0.0112036 0)
(0.533267 -0.00183918 0)
(0.531238 -0.0172891 0)
(0.513904 -0.0371492 0)
(0.478289 -0.0648379 0)
(0.414684 -0.108591 0)
(0.324001 -0.186723 0)
(0.173208 -0.296559 0)
(0.0429839 -0.335042 0)
(0.211327 0.129531 0)
(0.297264 0.10093 0)
(0.451163 0.0674646 0)
(0.543291 0.0443197 0)
(0.618088 0.0290925 0)
(0.674013 0.0198557 0)
(0.717967 0.0138515 0)
(0.75258 0.00980386 0)
(0.779825 0.00682516 0)
(0.800701 0.00442255 0)
(0.815647 0.00226669 0)
(0.824616 0.000138348 0)
(0.827117 -0.00218478 0)
(0.822155 -0.00489159 0)
(0.807858 -0.00852886 0)
(0.781252 -0.0136945 0)
(0.734307 -0.0228999 0)
(0.6586 -0.0407263 0)
(0.498165 -0.074366 0)
(0.288347 -0.136213 0)
)
;

boundaryField
{
    movingWall
    {
        type            fixedValue;
        value           uniform (1 0 0);
    }
    fixedWalls
    {
        type            noSlip;
    }
    frontAndBack
    {
        type            empty;
    }
}


// ************************************************************************* //
