/*--------------------------------*- C++ -*----------------------------------*\
| =========                 |                                                 |
| \\      /  F ield         | OpenFOAM: The Open Source CFD Toolbox           |
|  \\    /   O peration     | Version:  4.1                                   |
|   \\  /    A nd           | Web:      www.OpenFOAM.org                      |
|    \\/     M anipulation  |                                                 |
\*---------------------------------------------------------------------------*/
FoamFile
{
    version     2.0;
    format      ascii;
    class       volVectorField;
    location    "0.062";
    object      U;
}
// * * * * * * * * * * * * * * * * * * * * * * * * * * * * * * * * * * * * * //

dimensions      [0 1 -1 0 0 0 0];

internalField   nonuniform List<vector> 
100
(
(-0.00212437 0.00183449 0)
(-0.00535293 0.00187353 0)
(-0.0114596 0.00184623 0)
(-0.0142042 0.000780383 0)
(-0.016911 0.000343751 0)
(-0.0171423 -0.00102083 0)
(-0.0152768 -0.00153857 0)
(-0.0126194 -0.00280358 0)
(-0.00617633 -0.00291634 0)
(-0.00261155 -0.00286713 0)
(-0.00318428 0.00567804 0)
(-0.00929366 0.0073581 0)
(-0.0189781 0.0072833 0)
(-0.0236759 0.00441743 0)
(-0.0277871 0.00298584 0)
(-0.0281321 -0.000911517 0)
(-0.0252273 -0.00260767 0)
(-0.0206598 -0.00652795 0)
(-0.0105278 -0.00688903 0)
(-0.00377858 -0.00589071 0)
(-0.0037496 0.0143761 0)
(-0.010848 0.0175022 0)
(-0.021858 0.0165383 0)
(-0.0272456 0.00917805 0)
(-0.0320895 0.00511617 0)
(-0.0326233 -0.00415526 0)
(-0.0297548 -0.0088464 0)
(-0.0246386 -0.018122 0)
(-0.0131018 -0.0199141 0)
(-0.00496203 -0.0175235 0)
(-0.00585014 0.0200843 0)
(-0.0154433 0.0251498 0)
(-0.0296912 0.0238958 0)
(-0.0367498 0.0143296 0)
(-0.0427356 0.00893093 0)
(-0.0437414 -0.00340645 0)
(-0.0407487 -0.00979347 0)
(-0.0343954 -0.0230698 0)
(-0.0195186 -0.0257695 0)
(-0.00776858 -0.0234006 0)
(-0.00694664 0.0360242 0)
(-0.0181355 0.0411257 0)
(-0.0344754 0.0384775 0)
(-0.0426375 0.0215337 0)
(-0.049948 0.0125687 0)
(-0.051616 -0.00722052 0)
(-0.0497665 -0.0181146 0)
(-0.0432283 -0.0407192 0)
(-0.0267441 -0.0470481 0)
(-0.0114849 -0.0459008 0)
(-0.0136268 0.0445288 0)
(-0.0310333 0.0519707 0)
(-0.0519561 0.0486007 0)
(-0.0629915 0.0292505 0)
(-0.0712825 0.0188403 0)
(-0.0742851 -0.00375144 0)
(-0.0741961 -0.0166526 0)
(-0.066847 -0.0456781 0)
(-0.0466241 -0.0557071 0)
(-0.0208366 -0.0603374 0)
(-0.0156805 0.081802 0)
(-0.0363305 0.0789533 0)
(-0.0591412 0.0718382 0)
(-0.0711299 0.0395739 0)
(-0.0805327 0.0247023 0)
(-0.0840879 -0.00631653 0)
(-0.0880743 -0.0254265 0)
(-0.082765 -0.0711128 0)
(-0.0663448 -0.0941255 0)
(-0.0313874 -0.116262 0)
(-0.0395266 0.0945673 0)
(-0.0726466 0.0938895 0)
(-0.0859822 0.0836182 0)
(-0.0953315 0.0496455 0)
(-0.0983508 0.0333582 0)
(-0.10096 0.00346132 0)
(-0.111357 -0.0151708 0)
(-0.106652 -0.066537 0)
(-0.10045 -0.103044 0)
(-0.0471487 -0.155316 0)
(-0.0343225 0.197111 0)
(-0.0372733 0.12379 0)
(-0.0253962 0.0976646 0)
(-0.0129393 0.0495763 0)
(-0.00475777 0.031857 0)
(0.0080929 0.00325064 0)
(-0.000336213 -0.0191131 0)
(0.00959292 -0.0873718 0)
(-0.0203571 -0.155005 0)
(-0.00499099 -0.272266 0)
(0.149129 0.159884 0)
(0.224136 0.0823482 0)
(0.345504 0.060732 0)
(0.388854 0.028192 0)
(0.42028 0.0153695 0)
(0.439153 -0.00116181 0)
(0.42027 -0.0111228 0)
(0.41203 -0.0437235 0)
(0.285651 -0.0772247 0)
(0.18374 -0.168563 0)
)
;

boundaryField
{
    movingWall
    {
        type            fixedValue;
        value           uniform (1 0 0);
    }
    fixedWalls
    {
        type            noSlip;
    }
    frontAndBack
    {
        type            empty;
    }
}


// ************************************************************************* //
