/*--------------------------------*- C++ -*----------------------------------*\
| =========                 |                                                 |
| \\      /  F ield         | OpenFOAM: The Open Source CFD Toolbox           |
|  \\    /   O peration     | Version:  4.1                                   |
|   \\  /    A nd           | Web:      www.OpenFOAM.org                      |
|    \\/     M anipulation  |                                                 |
\*---------------------------------------------------------------------------*/
FoamFile
{
    version     2.0;
    format      ascii;
    class       volVectorField;
    location    "0.0225";
    object      U;
}
// * * * * * * * * * * * * * * * * * * * * * * * * * * * * * * * * * * * * * //

dimensions      [0 1 -1 0 0 0 0];

internalField   nonuniform List<vector> 
6400
(
(5.11209e-06 -5.08667e-06 0)
(1.77825e-05 -5.4324e-06 0)
(2.49028e-05 -2.6318e-07 0)
(2.22105e-05 8.71298e-06 0)
(7.12697e-06 1.98514e-05 0)
(-2.15663e-05 3.19855e-05 0)
(-6.41801e-05 4.43207e-05 0)
(-0.00012041 5.63279e-05 0)
(-0.00018955 6.76609e-05 0)
(-0.000270634 7.80994e-05 0)
(-0.000362543 8.75096e-05 0)
(-0.000464066 9.58178e-05 0)
(-0.000573955 0.000102992 0)
(-0.000690952 0.000109029 0)
(-0.000813817 0.000113945 0)
(-0.000941339 0.00011777 0)
(-0.00107235 0.000120544 0)
(-0.00120573 0.000122313 0)
(-0.00134042 0.000123126 0)
(-0.00147541 0.000123036 0)
(-0.00160974 0.000122094 0)
(-0.00174252 0.000120354 0)
(-0.00187292 0.000117869 0)
(-0.00200017 0.00011469 0)
(-0.00212353 0.000110867 0)
(-0.00224234 0.00010645 0)
(-0.00235599 0.000101483 0)
(-0.0024639 9.60143e-05 0)
(-0.00256557 9.00852e-05 0)
(-0.00266051 8.37378e-05 0)
(-0.0027483 7.70119e-05 0)
(-0.00282855 6.99455e-05 0)
(-0.00290092 6.25754e-05 0)
(-0.0029651 5.49369e-05 0)
(-0.00302082 4.70642e-05 0)
(-0.00306784 3.89908e-05 0)
(-0.00310598 3.07491e-05 0)
(-0.00313506 2.23713e-05 0)
(-0.00315495 1.38893e-05 0)
(-0.00316557 5.33476e-06 0)
(-0.00316685 -3.26016e-06 0)
(-0.00315877 -1.18631e-05 0)
(-0.00314133 -2.04409e-05 0)
(-0.00311458 -2.89598e-05 0)
(-0.0030786 -3.73846e-05 0)
(-0.00303352 -4.56794e-05 0)
(-0.00297948 -5.38065e-05 0)
(-0.00291669 -6.17269e-05 0)
(-0.0028454 -6.93999e-05 0)
(-0.00276588 -7.67833e-05 0)
(-0.00267848 -8.38329e-05 0)
(-0.00258358 -9.05031e-05 0)
(-0.00248161 -9.67462e-05 0)
(-0.00237306 -0.000102513 0)
(-0.00225845 -0.000107753 0)
(-0.0021384 -0.000112414 0)
(-0.00201355 -0.000116443 0)
(-0.00188461 -0.000119785 0)
(-0.00175235 -0.000122386 0)
(-0.00161759 -0.00012419 0)
(-0.00148124 -0.000125144 0)
(-0.00134424 -0.000125194 0)
(-0.00120759 -0.000124286 0)
(-0.00107236 -0.000122373 0)
(-0.00093966 -0.000119409 0)
(-0.000810664 -0.000115354 0)
(-0.000686575 -0.000110176 0)
(-0.000568635 -0.000103853 0)
(-0.000458105 -9.63814e-05 0)
(-0.00035625 -8.77748e-05 0)
(-0.000264316 -7.80789e-05 0)
(-0.000183493 -6.73812e-05 0)
(-0.000114871 -5.58296e-05 0)
(-5.93667e-05 -4.36586e-05 0)
(-1.76259e-05 -3.12275e-05 0)
(1.01208e-05 -1.90766e-05 0)
(2.42674e-05 -8.00817e-06 0)
(2.6119e-05 8.11294e-07 0)
(1.83332e-05 5.75426e-06 0)
(5.22431e-06 5.18098e-06 0)
(5.55156e-06 -1.77389e-05 0)
(1.87155e-05 -1.83645e-05 0)
(1.56234e-05 5.07026e-06 0)
(-1.34883e-05 4.33809e-05 0)
(-7.4786e-05 9.00022e-05 0)
(-0.000171364 0.000140394 0)
(-0.000304184 0.000191455 0)
(-0.000472682 0.000241097 0)
(-0.000675244 0.000287936 0)
(-0.000909538 0.000331084 0)
(-0.00117277 0.000369993 0)
(-0.00146185 0.000404357 0)
(-0.00177354 0.000434036 0)
(-0.00210454 0.00045901 0)
(-0.00245152 0.000479339 0)
(-0.00281125 0.000495144 0)
(-0.00318054 0.000506581 0)
(-0.00355635 0.000513837 0)
(-0.00393575 0.000517112 0)
(-0.00431595 0.00051662 0)
(-0.00469431 0.000512577 0)
(-0.00506834 0.000505204 0)
(-0.00543571 0.000494716 0)
(-0.00579423 0.000481328 0)
(-0.00614187 0.000465248 0)
(-0.00647674 0.000446679 0)
(-0.0067971 0.000425816 0)
(-0.00710134 0.000402848 0)
(-0.007388 0.000377956 0)
(-0.00765572 0.000351312 0)
(-0.00790329 0.000323084 0)
(-0.00812962 0.000293431 0)
(-0.0083337 0.000262507 0)
(-0.00851468 0.000230461 0)
(-0.00867177 0.000197435 0)
(-0.00880433 0.000163569 0)
(-0.00891178 0.000129001 0)
(-0.00899366 9.38653e-05 0)
(-0.00904961 5.82945e-05 0)
(-0.00907936 2.24224e-05 0)
(-0.00908275 -1.36168e-05 0)
(-0.0090597 -4.96874e-05 0)
(-0.00901025 -8.56508e-05 0)
(-0.00893454 -0.000121365 0)
(-0.00883279 -0.000156684 0)
(-0.00870537 -0.000191457 0)
(-0.00855273 -0.000225526 0)
(-0.00837545 -0.000258729 0)
(-0.00817423 -0.000290896 0)
(-0.00794989 -0.00032185 0)
(-0.00770338 -0.000351407 0)
(-0.0074358 -0.000379377 0)
(-0.00714838 -0.000405561 0)
(-0.0068425 -0.000429754 0)
(-0.00651967 -0.000451746 0)
(-0.00618158 -0.000471319 0)
(-0.00583006 -0.000488252 0)
(-0.00546712 -0.000502319 0)
(-0.00509491 -0.000513294 0)
(-0.00471574 -0.000520949 0)
(-0.0043321 -0.000525057 0)
(-0.00394661 -0.000525397 0)
(-0.00356207 -0.000521755 0)
(-0.00318141 -0.000513929 0)
(-0.00280769 -0.000501734 0)
(-0.00244407 -0.000485008 0)
(-0.00209384 -0.000463625 0)
(-0.00176032 -0.000437502 0)
(-0.00144687 -0.000406622 0)
(-0.00115683 -0.000371053 0)
(-0.00089342 -0.000330987 0)
(-0.000659689 -0.000286787 0)
(-0.000458351 -0.000239056 0)
(-0.000291617 -0.000188739 0)
(-0.000160952 -0.00013727 0)
(-6.67406e-05 -8.67825e-05 0)
(-7.82189e-06 -4.0406e-05 0)
(1.91033e-05 -2.68133e-06 0)
(2.03883e-05 1.98787e-05 0)
(5.93034e-06 1.8247e-05 0)
(5.28556e-07 -2.49884e-05 0)
(-4.14591e-06 -1.53196e-05 0)
(-3.66331e-05 3.79111e-05 0)
(-0.000109278 0.000118302 0)
(-0.000230261 0.000214059 0)
(-0.000403861 0.000316846 0)
(-0.000631525 0.000420832 0)
(-0.000912578 0.00052199 0)
(-0.00124482 0.00061759 0)
(-0.00162495 0.000705826 0)
(-0.00204896 0.000785552 0)
(-0.00251231 0.000856096 0)
(-0.0030102 0.000917126 0)
(-0.00353767 0.00096855 0)
(-0.00408972 0.00101045 0)
(-0.00466138 0.00104304 0)
(-0.00524779 0.00106661 0)
(-0.00584425 0.00108152 0)
(-0.0064462 0.00108816 0)
(-0.00704931 0.00108696 0)
(-0.00764944 0.00107835 0)
(-0.00824269 0.00106278 0)
(-0.00882539 0.00104069 0)
(-0.00939409 0.00101252 0)
(-0.00994557 0.000978699 0)
(-0.0104768 0.00093965 0)
(-0.0109851 0.000895777 0)
(-0.0114679 0.000847472 0)
(-0.0119228 0.000795113 0)
(-0.0123476 0.000739065 0)
(-0.0127405 0.000679676 0)
(-0.0130997 0.000617283 0)
(-0.0134236 0.000552209 0)
(-0.0137108 0.000484768 0)
(-0.01396 0.000415263 0)
(-0.0141703 0.000343989 0)
(-0.0143407 0.000271236 0)
(-0.0144705 0.000197289 0)
(-0.0145591 0.00012243 0)
(-0.0146061 4.69411e-05 0)
(-0.0146112 -2.88927e-05 0)
(-0.0145743 -0.000104785 0)
(-0.0144955 -0.000180442 0)
(-0.014375 -0.000255564 0)
(-0.0142132 -0.000329844 0)
(-0.0140106 -0.000402962 0)
(-0.0137681 -0.000474589 0)
(-0.0134865 -0.00054438 0)
(-0.013167 -0.00061198 0)
(-0.0128108 -0.000677018 0)
(-0.0124195 -0.000739109 0)
(-0.0119949 -0.000797854 0)
(-0.0115389 -0.000852839 0)
(-0.0110537 -0.000903636 0)
(-0.0105418 -0.000949808 0)
(-0.0100057 -0.000990902 0)
(-0.00944849 -0.00102646 0)
(-0.0088732 -0.00105602 0)
(-0.00828327 -0.00107911 0)
(-0.00768235 -0.00109526 0)
(-0.00707433 -0.00110402 0)
(-0.00646332 -0.00110493 0)
(-0.00585368 -0.00109756 0)
(-0.00524996 -0.00108151 0)
(-0.00465689 -0.00105643 0)
(-0.00407937 -0.00102199 0)
(-0.00352241 -0.000977978 0)
(-0.00299109 -0.000924247 0)
(-0.00249049 -0.000860803 0)
(-0.0020256 -0.000787835 0)
(-0.00160121 -0.000705779 0)
(-0.00122179 -0.000615417 0)
(-0.000891238 -0.000518006 0)
(-0.000612684 -0.000415462 0)
(-0.000388116 -0.000310617 0)
(-0.000217953 -0.00020758 0)
(-0.000100471 -0.000112239 0)
(-3.10998e-05 -3.29399e-05 0)
(-1.39697e-06 1.8595e-05 0)
(1.18798e-06 2.61631e-05 0)
(-8.25229e-06 -2.26692e-05 0)
(-4.16824e-05 1.32712e-05 0)
(-0.000115686 0.000110357 0)
(-0.000243345 0.000246258 0)
(-0.000433548 0.000404425 0)
(-0.00069098 0.000572805 0)
(-0.00101718 0.000742727 0)
(-0.00141127 0.000908046 0)
(-0.00187052 0.00106448 0)
(-0.0023909 0.00120911 0)
(-0.00296741 0.00134004 0)
(-0.0035944 0.00145611 0)
(-0.00426581 0.00155668 0)
(-0.00497534 0.00164154 0)
(-0.00571658 0.00171075 0)
(-0.00648316 0.00176459 0)
(-0.00726878 0.0018035 0)
(-0.00806731 0.00182802 0)
(-0.00887282 0.00183877 0)
(-0.00967961 0.00183643 0)
(-0.0104822 0.00182168 0)
(-0.0112756 0.00179527 0)
(-0.0120547 0.0017579 0)
(-0.0128151 0.0017103 0)
(-0.0135525 0.00165319 0)
(-0.0142629 0.00158725 0)
(-0.0149425 0.00151317 0)
(-0.0155881 0.00143159 0)
(-0.0161963 0.00134316 0)
(-0.0167645 0.00124849 0)
(-0.0172899 0.00114815 0)
(-0.0177702 0.00104273 0)
(-0.0182033 0.000932768 0)
(-0.0185872 0.000818794 0)
(-0.0189205 0.000701325 0)
(-0.0192016 0.00058086 0)
(-0.0194293 0.000457894 0)
(-0.0196026 0.000332909 0)
(-0.0197209 0.000206388 0)
(-0.0197834 7.88098e-05 0)
(-0.0197899 -4.93416e-05 0)
(-0.0197402 -0.000177578 0)
(-0.0196345 -0.000305403 0)
(-0.019473 -0.000432306 0)
(-0.0192562 -0.000557765 0)
(-0.018985 -0.00068124 0)
(-0.0186604 -0.000802173 0)
(-0.0182835 -0.000919984 0)
(-0.017856 -0.00103407 0)
(-0.0173796 -0.00114381 0)
(-0.0168563 -0.00124855 0)
(-0.0162885 -0.00134763 0)
(-0.0156789 -0.00144035 0)
(-0.0150303 -0.00152599 0)
(-0.014346 -0.00160383 0)
(-0.0136296 -0.00167311 0)
(-0.0128849 -0.00173307 0)
(-0.0121162 -0.00178294 0)
(-0.0113279 -0.00182194 0)
(-0.0105248 -0.00184932 0)
(-0.0097122 -0.00186432 0)
(-0.00889538 -0.0018662 0)
(-0.00808011 -0.00185428 0)
(-0.00727233 -0.00182793 0)
(-0.00647823 -0.00178657 0)
(-0.00570417 -0.00172974 0)
(-0.00495663 -0.00165711 0)
(-0.00424213 -0.00156852 0)
(-0.00356718 -0.00146404 0)
(-0.00293812 -0.00134404 0)
(-0.00236101 -0.00120933 0)
(-0.0018414 -0.00106123 0)
(-0.00138416 -0.000901837 0)
(-0.000993122 -0.000734229 0)
(-0.000670743 -0.000562848 0)
(-0.000417603 -0.000393975 0)
(-0.000231818 -0.000236373 0)
(-0.000108349 -0.000102123 0)
(-3.79757e-05 -7.7077e-06 0)
(-7.34071e-06 2.47447e-05 0)
(-1.91976e-05 -8.25497e-06 0)
(-8.75574e-05 7.35178e-05 0)
(-0.000210254 0.000230585 0)
(-0.000400073 0.000436209 0)
(-0.000665683 0.000669911 0)
(-0.0010115 0.000916323 0)
(-0.00143873 0.00116408 0)
(-0.00194605 0.00140492 0)
(-0.00253018 0.00163293 0)
(-0.00318637 0.00184398 0)
(-0.0039088 0.00203531 0)
(-0.00469089 0.00220516 0)
(-0.00552551 0.00235252 0)
(-0.00640527 0.00247699 0)
(-0.00732259 0.00257856 0)
(-0.0082699 0.00265757 0)
(-0.00923969 0.00271457 0)
(-0.0102246 0.00275032 0)
(-0.0112175 0.00276566 0)
(-0.0122116 0.00276155 0)
(-0.0132002 0.00273899 0)
(-0.0141771 0.00269902 0)
(-0.0151364 0.0026427 0)
(-0.0160725 0.00257107 0)
(-0.0169802 0.00248517 0)
(-0.0178546 0.00238604 0)
(-0.0186911 0.00227468 0)
(-0.0194856 0.00215206 0)
(-0.0202343 0.00201913 0)
(-0.0209335 0.0018768 0)
(-0.0215801 0.00172594 0)
(-0.0221712 0.00156742 0)
(-0.0227042 0.00140206 0)
(-0.0231767 0.00123066 0)
(-0.0235867 0.00105399 0)
(-0.0239324 0.000872804 0)
(-0.0242125 0.000687855 0)
(-0.0244256 0.000499873 0)
(-0.0245709 0.000309585 0)
(-0.0246475 0.000117718 0)
(-0.0246552 -7.49972e-05 0)
(-0.0245937 -0.000267823 0)
(-0.0244632 -0.000460008 0)
(-0.0242641 -0.000650784 0)
(-0.023997 -0.000839362 0)
(-0.0236629 -0.00102493 0)
(-0.023263 -0.00120664 0)
(-0.022799 -0.00138363 0)
(-0.0222726 -0.001555 0)
(-0.0216861 -0.0017198 0)
(-0.021042 -0.00187707 0)
(-0.0203433 -0.00202582 0)
(-0.0195931 -0.00216499 0)
(-0.018795 -0.00229353 0)
(-0.0179531 -0.00241036 0)
(-0.0170716 -0.00251435 0)
(-0.0161554 -0.00260439 0)
(-0.0152095 -0.00267933 0)
(-0.0142394 -0.00273805 0)
(-0.0132511 -0.00277943 0)
(-0.0122507 -0.00280237 0)
(-0.0112449 -0.00280583 0)
(-0.0102404 -0.00278881 0)
(-0.00924461 -0.00275042 0)
(-0.0082648 -0.00268987 0)
(-0.00730862 -0.00260655 0)
(-0.0063838 -0.00250003 0)
(-0.0054981 -0.00237016 0)
(-0.0046592 -0.00221713 0)
(-0.00387456 -0.00204158 0)
(-0.00315129 -0.00184475 0)
(-0.00249587 -0.00162865 0)
(-0.00191399 -0.0013963 0)
(-0.00141016 -0.00115208 0)
(-0.000987355 -0.00090211 0)
(-0.000646553 -0.000654864 0)
(-0.000386153 -0.000421841 0)
(-0.000201326 -0.000218471 0)
(-8.30044e-05 -6.51898e-05 0)
(-1.80638e-05 1.14399e-05 0)
(-3.12177e-05 1.95017e-05 0)
(-0.000137557 0.000168682 0)
(-0.000312694 0.000403238 0)
(-0.000568592 0.000693416 0)
(-0.000913119 0.00101573 0)
(-0.0013499 0.00135204 0)
(-0.00187944 0.00168861 0)
(-0.00249971 0.00201518 0)
(-0.00320674 0.00232426 0)
(-0.00399506 0.00261048 0)
(-0.00485805 0.00287017 0)
(-0.00578827 0.00310091 0)
(-0.00677772 0.00330128 0)
(-0.00781802 0.0034706 0)
(-0.00890061 0.00360879 0)
(-0.0100169 0.0037162 0)
(-0.0111583 0.00379351 0)
(-0.0123165 0.00384166 0)
(-0.0134832 0.00386176 0)
(-0.0146506 0.00385504 0)
(-0.0158112 0.00382286 0)
(-0.0169576 0.00376659 0)
(-0.018083 0.00368765 0)
(-0.019181 0.00358748 0)
(-0.0202456 0.00346749 0)
(-0.0212709 0.00332909 0)
(-0.0222518 0.00317366 0)
(-0.0231834 0.00300254 0)
(-0.0240611 0.00281703 0)
(-0.0248808 0.00261841 0)
(-0.0256388 0.00240788 0)
(-0.0263316 0.00218665 0)
(-0.0269563 0.00195586 0)
(-0.0275101 0.00171663 0)
(-0.0279906 0.00147003 0)
(-0.0283957 0.00121714 0)
(-0.0287238 0.00095899 0)
(-0.0289734 0.000696608 0)
(-0.0291433 0.000431017 0)
(-0.0292329 0.000163234 0)
(-0.0292416 -0.000105717 0)
(-0.0291692 -0.0003748 0)
(-0.029016 -0.000642963 0)
(-0.0287822 -0.000909131 0)
(-0.0284688 -0.0011722 0)
(-0.0280769 -0.00143104 0)
(-0.0276079 -0.00168446 0)
(-0.0270638 -0.00193127 0)
(-0.0264466 -0.00217019 0)
(-0.025759 -0.00239994 0)
(-0.0250039 -0.00261917 0)
(-0.0241848 -0.00282648 0)
(-0.0233054 -0.00302044 0)
(-0.0223699 -0.00319959 0)
(-0.021383 -0.00336243 0)
(-0.0203497 -0.00350743 0)
(-0.0192755 -0.00363303 0)
(-0.0181665 -0.0037377 0)
(-0.0170289 -0.00381989 0)
(-0.0158696 -0.00387809 0)
(-0.0146958 -0.00391081 0)
(-0.013515 -0.00391665 0)
(-0.0123352 -0.00389431 0)
(-0.0111647 -0.0038426 0)
(-0.0100119 -0.00376053 0)
(-0.00888548 -0.0036473 0)
(-0.0077943 -0.00350243 0)
(-0.00674716 -0.0033258 0)
(-0.00575274 -0.00311777 0)
(-0.00481949 -0.0028793 0)
(-0.00395541 -0.00261215 0)
(-0.00316784 -0.00231905 0)
(-0.00246324 -0.00200403 0)
(-0.00184682 -0.00167279 0)
(-0.00132223 -0.00133311 0)
(-0.000891104 -0.000995522 0)
(-0.0005525 -0.000673963 0)
(-0.000302321 -0.000386677 0)
(-0.000132238 -0.000157157 0)
(-2.98836e-05 -1.50205e-05 0)
(-4.36081e-05 6.10391e-05 0)
(-0.000188955 0.000300157 0)
(-0.000417954 0.000630531 0)
(-0.000741547 0.00102055 0)
(-0.00116647 0.00144457 0)
(-0.00169521 0.00188229 0)
(-0.00232725 0.00231797 0)
(-0.00305966 0.00273961 0)
(-0.00388761 0.00313823 0)
(-0.00480482 0.00350731 0)
(-0.00580388 0.00384224 0)
(-0.00687653 0.00413995 0)
(-0.00801393 0.00439855 0)
(-0.00920685 0.0046171 0)
(-0.0104458 0.00479539 0)
(-0.0117214 0.00493377 0)
(-0.013024 0.00503304 0)
(-0.0143445 0.00509431 0)
(-0.0156737 0.00511898 0)
(-0.0170028 0.00510859 0)
(-0.0183234 0.00506482 0)
(-0.0196274 0.00498944 0)
(-0.0209071 0.00488428 0)
(-0.0221553 0.00475117 0)
(-0.0233652 0.00459195 0)
(-0.0245303 0.00440844 0)
(-0.0256448 0.00420245 0)
(-0.0267031 0.00397573 0)
(-0.0277001 0.00372998 0)
(-0.0286311 0.00346688 0)
(-0.029492 0.00318803 0)
(-0.0302788 0.00289499 0)
(-0.0309882 0.0025893 0)
(-0.0316169 0.00227242 0)
(-0.0321624 0.00194578 0)
(-0.0326224 0.00161081 0)
(-0.0329947 0.00126888 0)
(-0.0332779 0.000921347 0)
(-0.0334708 0.000569577 0)
(-0.0335722 0.000214921 0)
(-0.0335819 -0.000141261 0)
(-0.0334995 -0.000497595 0)
(-0.0333252 -0.000852684 0)
(-0.0330595 -0.0012051 0)
(-0.0327034 -0.00155338 0)
(-0.0322582 -0.00189603 0)
(-0.0317254 -0.00223148 0)
(-0.0311073 -0.00255813 0)
(-0.0304063 -0.00287433 0)
(-0.0296254 -0.00317836 0)
(-0.0287679 -0.00346844 0)
(-0.0278375 -0.00374276 0)
(-0.0268387 -0.00399943 0)
(-0.0257762 -0.00423652 0)
(-0.0246551 -0.00445208 0)
(-0.0234813 -0.00464411 0)
(-0.0222609 -0.00481059 0)
(-0.0210005 -0.00494952 0)
(-0.0197074 -0.0050589 0)
(-0.0183892 -0.00513678 0)
(-0.0170539 -0.00518127 0)
(-0.01571 -0.00519057 0)
(-0.0143664 -0.00516303 0)
(-0.0130322 -0.00509719 0)
(-0.0117168 -0.0049918 0)
(-0.01043 -0.00484593 0)
(-0.00918137 -0.00465904 0)
(-0.00798073 -0.00443108 0)
(-0.00683767 -0.00416258 0)
(-0.0057615 -0.00385489 0)
(-0.00476106 -0.00351028 0)
(-0.00384452 -0.00313227 0)
(-0.00301912 -0.0027259 0)
(-0.00229087 -0.0022981 0)
(-0.00166424 -0.00185825 0)
(-0.00114175 -0.0014187 0)
(-0.000723416 -0.000995455 0)
(-0.000406225 -0.000608997 0)
(-0.000182918 -0.000285031 0)
(-4.20863e-05 -5.50885e-05 0)
(-5.59342e-05 0.000116287 0)
(-0.000240058 0.000468094 0)
(-0.000522825 0.000912997 0)
(-0.000914143 0.00141842 0)
(-0.00141946 0.0019573 0)
(-0.00203995 0.00250774 0)
(-0.00277384 0.0030524 0)
(-0.00361709 0.0035778 0)
(-0.00456391 0.00407369 0)
(-0.0056071 0.00453246 0)
(-0.0067384 0.00494865 0)
(-0.00794872 0.00531852 0)
(-0.00922842 0.00563976 0)
(-0.0105675 0.00591113 0)
(-0.0119556 0.00613229 0)
(-0.0133825 0.0063036 0)
(-0.0148378 0.00642595 0)
(-0.0163115 0.00650066 0)
(-0.0177937 0.00652938 0)
(-0.0192748 0.00651398 0)
(-0.0207456 0.00645652 0)
(-0.0221972 0.00635917 0)
(-0.0236212 0.00622418 0)
(-0.0250097 0.00605382 0)
(-0.0263552 0.0058504 0)
(-0.0276506 0.00561618 0)
(-0.0288895 0.00535343 0)
(-0.0300657 0.00506435 0)
(-0.0311736 0.0047511 0)
(-0.0322082 0.00441577 0)
(-0.0331647 0.00406041 0)
(-0.0340388 0.00368701 0)
(-0.0348267 0.00329749 0)
(-0.0355252 0.00289373 0)
(-0.036131 0.00247756 0)
(-0.0366418 0.00205076 0)
(-0.0370553 0.00161512 0)
(-0.0373697 0.00117235 0)
(-0.0375838 0.000724205 0)
(-0.0376963 0.000272399 0)
(-0.0377069 -0.00018133 0)
(-0.0376152 -0.000635228 0)
(-0.0374215 -0.00108751 0)
(-0.0371263 -0.00153637 0)
(-0.0367307 -0.00197993 0)
(-0.036236 -0.00241628 0)
(-0.0356442 -0.00284344 0)
(-0.0349576 -0.00325938 0)
(-0.0341789 -0.003662 0)
(-0.0333113 -0.00404911 0)
(-0.0323586 -0.00441847 0)
(-0.031325 -0.00476778 0)
(-0.0302152 -0.00509466 0)
(-0.0290344 -0.00539668 0)
(-0.0277885 -0.00567137 0)
(-0.0264837 -0.00591623 0)
(-0.0251267 -0.00612874 0)
(-0.0237251 -0.00630638 0)
(-0.0222865 -0.00644666 0)
(-0.0208194 -0.00654717 0)
(-0.0193326 -0.00660556 0)
(-0.0178354 -0.00661964 0)
(-0.0163373 -0.00658739 0)
(-0.0148484 -0.00650702 0)
(-0.0133791 -0.00637708 0)
(-0.0119397 -0.00619648 0)
(-0.0105409 -0.00596462 0)
(-0.00919316 -0.00568151 0)
(-0.00790705 -0.00534793 0)
(-0.00669264 -0.00496557 0)
(-0.00555962 -0.00453726 0)
(-0.00451696 -0.00406726 0)
(-0.00357275 -0.00356156 0)
(-0.0027339 -0.00302831 0)
(-0.00200584 -0.00247825 0)
(-0.00139215 -0.0019253 0)
(-0.000894045 -0.00138716 0)
(-0.000509783 -0.000885992 0)
(-0.000233324 -0.000448982 0)
(-5.42306e-05 -0.000108701 0)
(-6.79437e-05 0.000184877 0)
(-0.000289874 0.000671877 0)
(-0.000625376 0.00125007 0)
(-0.00108343 0.00188658 0)
(-0.00166817 0.00255352 0)
(-0.00237933 0.00322789 0)
(-0.00321378 0.00389114 0)
(-0.00416625 0.00452861 0)
(-0.00522982 0.00512897 0)
(-0.0063963 0.00568365 0)
(-0.00765651 0.00618644 0)
(-0.00900053 0.00663301 0)
(-0.0104179 0.00702061 0)
(-0.0118977 0.00734775 0)
(-0.0134291 0.00761397 0)
(-0.0150008 0.00781962 0)
(-0.0166019 0.00796572 0)
(-0.0182215 0.00805377 0)
(-0.019849 0.00808572 0)
(-0.0214741 0.00806376 0)
(-0.0230868 0.00799035 0)
(-0.0246777 0.00786808 0)
(-0.0262377 0.00769965 0)
(-0.0277583 0.00748781 0)
(-0.0292312 0.00723534 0)
(-0.030649 0.00694501 0)
(-0.0320046 0.00661955 0)
(-0.0332913 0.00626167 0)
(-0.0345032 0.005874 0)
(-0.0356346 0.00545911 0)
(-0.0366805 0.00501952 0)
(-0.0376363 0.00455767 0)
(-0.0384977 0.00407592 0)
(-0.0392612 0.00357659 0)
(-0.0399235 0.00306194 0)
(-0.0404818 0.00253419 0)
(-0.0409338 0.00199551 0)
(-0.0412775 0.00144805 0)
(-0.0415114 0.000893959 0)
(-0.0416344 0.000335364 0)
(-0.041646 -0.000225585 0)
(-0.0415458 -0.000786719 0)
(-0.041334 -0.00134584 0)
(-0.0410114 -0.00190069 0)
(-0.0405791 -0.00244898 0)
(-0.0400384 -0.00298834 0)
(-0.0393916 -0.00351634 0)
(-0.0386411 -0.00403047 0)
(-0.0377898 -0.00452812 0)
(-0.0368414 -0.00500664 0)
(-0.0357998 -0.00546325 0)
(-0.0346696 -0.00589514 0)
(-0.0334559 -0.00629938 0)
(-0.0321644 -0.00667301 0)
(-0.0308014 -0.007013 0)
(-0.0293735 -0.00731631 0)
(-0.0278883 -0.00757986 0)
(-0.0263536 -0.0078006 0)
(-0.0247779 -0.00797552 0)
(-0.0231702 -0.00810169 0)
(-0.02154 -0.0081763 0)
(-0.0198973 -0.00819672 0)
(-0.0182524 -0.00816055 0)
(-0.0166162 -0.0080657 0)
(-0.0149997 -0.00791043 0)
(-0.0134142 -0.00769353 0)
(-0.0118709 -0.00741434 0)
(-0.0103814 -0.00707295 0)
(-0.00895673 -0.00667032 0)
(-0.00760796 -0.00620852 0)
(-0.00634555 -0.0056909 0)
(-0.00517935 -0.00512243 0)
(-0.00411836 -0.00450999 0)
(-0.00317047 -0.00386276 0)
(-0.00234221 -0.00319268 0)
(-0.00163834 -0.00251499 0)
(-0.0010614 -0.00184868 0)
(-0.000611042 -0.00121712 0)
(-0.000282449 -0.000648405 0)
(-6.60598e-05 -0.000175492 0)
(-7.95054e-05 0.000266289 0)
(-0.000337882 0.000910449 0)
(-0.000724568 0.00164053 0)
(-0.00124775 0.00242381 0)
(-0.00191032 0.00323203 0)
(-0.00271056 0.00404151 0)
(-0.00364389 0.00483285 0)
(-0.00470371 0.00559046 0)
(-0.00588192 0.00630214 0)
(-0.00716922 0.00695855 0)
(-0.00855548 0.00755282 0)
(-0.0100299 0.00808011 0)
(-0.0115811 0.00853729 0)
(-0.0131975 0.00892265 0)
(-0.0148673 0.00923563 0)
(-0.0165786 0.0094766 0)
(-0.0183199 0.0096467 0)
(-0.0200794 0.00974767 0)
(-0.021846 0.00978173 0)
(-0.0236086 0.00975145 0)
(-0.0253567 0.00965968 0)
(-0.0270801 0.00950946 0)
(-0.0287693 0.00930396 0)
(-0.030415 0.00904644 0)
(-0.0320087 0.00874018 0)
(-0.0335423 0.00838848 0)
(-0.0350081 0.00799459 0)
(-0.0363992 0.00756172 0)
(-0.0377092 0.00709303 0)
(-0.038932 0.00659161 0)
(-0.0400621 0.00606045 0)
(-0.0410948 0.00550249 0)
(-0.0420255 0.00492057 0)
(-0.0428503 0.00431748 0)
(-0.0435657 0.00369594 0)
(-0.0441688 0.00305862 0)
(-0.044657 0.00240813 0)
(-0.0450283 0.00174709 0)
(-0.0452811 0.00107805 0)
(-0.0454141 0.000403608 0)
(-0.0454267 -0.000273656 0)
(-0.0453187 -0.000951123 0)
(-0.0450903 -0.00162614 0)
(-0.0447421 -0.002296 0)
(-0.0442754 -0.00295793 0)
(-0.0436918 -0.00360908 0)
(-0.0429934 -0.00424653 0)
(-0.0421829 -0.00486725 0)
(-0.0412636 -0.00546813 0)
(-0.0402392 -0.00604595 0)
(-0.039114 -0.00659742 0)
(-0.0378929 -0.00711912 0)
(-0.0365813 -0.00760759 0)
(-0.0351853 -0.00805926 0)
(-0.0337116 -0.00847054 0)
(-0.0321674 -0.00883777 0)
(-0.0305606 -0.0091573 0)
(-0.0288996 -0.00942552 0)
(-0.0271935 -0.00963885 0)
(-0.0254518 -0.00979382 0)
(-0.0236848 -0.00988714 0)
(-0.021903 -0.00991571 0)
(-0.0201175 -0.00987672 0)
(-0.0183398 -0.00976774 0)
(-0.0165816 -0.0095868 0)
(-0.0148548 -0.00933249 0)
(-0.0131717 -0.00900409 0)
(-0.0115444 -0.00860176 0)
(-0.00998489 -0.00812664 0)
(-0.0085049 -0.00758113 0)
(-0.00711582 -0.00696906 0)
(-0.00582841 -0.00629603 0)
(-0.00465263 -0.00556971 0)
(-0.00359745 -0.00480018 0)
(-0.00267057 -0.00400039 0)
(-0.00187806 -0.00318661 0)
(-0.00122385 -0.00237881 0)
(-0.000708956 -0.00160117 0)
(-0.00032977 -0.000882249 0)
(-7.74411e-05 -0.000254941 0)
(-9.05689e-05 0.000359939 0)
(-0.000383882 0.00118254 0)
(-0.000819966 0.00208279 0)
(-0.00140639 0.00302842 0)
(-0.0021449 0.00399115 0)
(-0.00303232 0.00494694 0)
(-0.00406266 0.00587581 0)
(-0.00522792 0.00676153 0)
(-0.00651871 0.00759122 0)
(-0.00792463 0.00835493 0)
(-0.00943447 0.00904526 0)
(-0.0110365 0.00965693 0)
(-0.0127184 0.0101865 0)
(-0.0144679 0.0106322 0)
(-0.0162725 0.0109932 0)
(-0.0181194 0.0112702 0)
(-0.0199964 0.0114642 0)
(-0.0218912 0.0115774 0)
(-0.0237918 0.0116122 0)
(-0.0256868 0.0115716 0)
(-0.0275649 0.0114589 0)
(-0.0294155 0.0112777 0)
(-0.0312283 0.0110314 0)
(-0.0329938 0.010724 0)
(-0.0347028 0.0103593 0)
(-0.0363467 0.00994113 0)
(-0.0379176 0.00947324 0)
(-0.0394081 0.00895942 0)
(-0.0408113 0.00840338 0)
(-0.0421209 0.00780873 0)
(-0.0433311 0.007179 0)
(-0.0444368 0.00651764 0)
(-0.0454332 0.00582801 0)
(-0.0463162 0.00511339 0)
(-0.0470821 0.00437699 0)
(-0.0477277 0.00362195 0)
(-0.0482504 0.00285138 0)
(-0.048648 0.00206833 0)
(-0.0489188 0.00127586 0)
(-0.0490615 0.000477015 0)
(-0.0490754 -0.000325151 0)
(-0.0489603 -0.00112755 0)
(-0.0487163 -0.00192704 0)
(-0.0483442 -0.00272042 0)
(-0.0478453 -0.00350443 0)
(-0.0472212 -0.0042757 0)
(-0.0464743 -0.00503078 0)
(-0.0456073 -0.00576611 0)
(-0.0446237 -0.00647801 0)
(-0.0435274 -0.00716271 0)
(-0.042323 -0.00781631 0)
(-0.0410157 -0.00843482 0)
(-0.0396111 -0.00901414 0)
(-0.0381157 -0.00955011 0)
(-0.0365366 -0.0100385 0)
(-0.0348814 -0.0104751 0)
(-0.0331585 -0.0108555 0)
(-0.0313767 -0.0111756 0)
(-0.0295456 -0.0114311 0)
(-0.0276753 -0.0116182 0)
(-0.0257766 -0.0117329 0)
(-0.0238607 -0.0117716 0)
(-0.0219393 -0.0117311 0)
(-0.0200245 -0.0116087 0)
(-0.0181287 -0.0114021 0)
(-0.0162646 -0.0111096 0)
(-0.0144452 -0.0107305 0)
(-0.0126833 -0.010265 0)
(-0.0109916 -0.00971426 0)
(-0.00938296 -0.00908109 0)
(-0.00786945 -0.00836971 0)
(-0.00646283 -0.00758627 0)
(-0.00517413 -0.00673908 0)
(-0.00401344 -0.00583901 0)
(-0.0029897 -0.00489982 0)
(-0.00211034 -0.00393857 0)
(-0.00138067 -0.00297594 0)
(-0.000803102 -0.00203659 0)
(-0.000375089 -0.00114926 0)
(-8.83246e-05 -0.000346462 0)
(-0.000101136 0.00046524 0)
(-0.000427881 0.00148684 0)
(-0.000911547 0.00257516 0)
(-0.00155925 0.00369858 0)
(-0.00237171 0.00482902 0)
(-0.0033444 0.00594233 0)
(-0.00446984 0.00701821 0)
(-0.00573867 0.00803999 0)
(-0.00714019 0.00899432 0)
(-0.00866278 0.00987077 0)
(-0.0102942 0.0106615 0)
(-0.0120216 0.0113611 0)
(-0.0138319 0.0119657 0)
(-0.0157119 0.0124734 0)
(-0.0176482 0.0128836 0)
(-0.0196276 0.0131968 0)
(-0.021637 0.0134145 0)
(-0.0236634 0.0135389 0)
(-0.0256944 0.013573 0)
(-0.0277177 0.01352 0)
(-0.0297217 0.0133837 0)
(-0.0316952 0.0131681 0)
(-0.0336274 0.0128774 0)
(-0.0355083 0.012516 0)
(-0.0373282 0.0120882 0)
(-0.0390783 0.0115984 0)
(-0.0407501 0.0110511 0)
(-0.0423359 0.0104506 0)
(-0.0438285 0.00980102 0)
(-0.0452212 0.0091067 0)
(-0.0465081 0.00837168 0)
(-0.0476837 0.00759995 0)
(-0.048743 0.0067954 0)
(-0.0496817 0.00596184 0)
(-0.0504959 0.00510298 0)
(-0.0511823 0.00422248 0)
(-0.0517381 0.00332393 0)
(-0.052161 0.00241091 0)
(-0.0524492 0.00148694 0)
(-0.0526015 0.000555569 0)
(-0.0526169 -0.000379657 0)
(-0.0524953 -0.00131515 0)
(-0.0522369 -0.00224726 0)
(-0.0518423 -0.00317228 0)
(-0.051313 -0.00408641 0)
(-0.0506506 -0.00498575 0)
(-0.0498577 -0.00586629 0)
(-0.0489371 -0.00672391 0)
(-0.0478923 -0.00755433 0)
(-0.0467276 -0.0083532 0)
(-0.0454477 -0.00911598 0)
(-0.044058 -0.00983807 0)
(-0.0425645 -0.0105147 0)
(-0.0409739 -0.0111411 0)
(-0.0392936 -0.0117124 0)
(-0.0375317 -0.0122236 0)
(-0.0356969 -0.0126698 0)
(-0.0337985 -0.0130462 0)
(-0.0318466 -0.013348 0)
(-0.0298518 -0.0135705 0)
(-0.0278253 -0.0137093 0)
(-0.0257791 -0.0137604 0)
(-0.0237252 -0.0137201 0)
(-0.0216766 -0.0135852 0)
(-0.0196463 -0.0133531 0)
(-0.0176478 -0.013022 0)
(-0.0156945 -0.012591 0)
(-0.0138003 -0.0120602 0)
(-0.0119787 -0.0114311 0)
(-0.0102432 -0.0107065 0)
(-0.00860701 -0.00989112 0)
(-0.00708287 -0.00899148 0)
(-0.00568288 -0.00801649 0)
(-0.00441834 -0.00697762 0)
(-0.00329947 -0.00588928 0)
(-0.00233507 -0.0047691 0)
(-0.00153184 -0.00363829 0)
(-0.000893485 -0.00252174 0)
(-0.000418424 -0.00144813 0)
(-9.87149e-05 -0.000449475 0)
(-0.000111242 0.000581647 0)
(-0.000470021 0.00182208 0)
(-0.000999563 0.00311598 0)
(-0.0017067 0.00443244 0)
(-0.00259122 0.00574376 0)
(-0.00364731 0.00702586 0)
(-0.00486611 0.00825829 0)
(-0.00623684 0.00942414 0)
(-0.00774746 0.0105097 0)
(-0.00938513 0.0115043 0)
(-0.0111364 0.0123999 0)
(-0.0129875 0.0131906 0)
(-0.0149245 0.0138727 0)
(-0.016933 0.0144441 0)
(-0.0189991 0.0149043 0)
(-0.0211087 0.0152539 0)
(-0.023248 0.0154947 0)
(-0.0254034 0.0156292 0)
(-0.0275619 0.0156607 0)
(-0.0297107 0.015593 0)
(-0.0318375 0.0154303 0)
(-0.0339307 0.0151772 0)
(-0.035979 0.0148383 0)
(-0.037972 0.0144186 0)
(-0.0398996 0.0139231 0)
(-0.0417525 0.0133568 0)
(-0.043522 0.0127247 0)
(-0.0452 0.0120317 0)
(-0.0467789 0.0112827 0)
(-0.048252 0.0104825 0)
(-0.0496129 0.00963568 0)
(-0.0508559 0.00874685 0)
(-0.0519759 0.00782044 0)
(-0.0529683 0.00686081 0)
(-0.0538292 0.00587222 0)
(-0.054555 0.00485885 0)
(-0.0551429 0.00382481 0)
(-0.0555905 0.00277418 0)
(-0.0558958 0.00171101 0)
(-0.0560575 0.000639346 0)
(-0.0560748 -0.000436735 0)
(-0.0559473 -0.00151313 0)
(-0.0556754 -0.00258567 0)
(-0.0552597 -0.0036501 0)
(-0.0547015 -0.00470207 0)
(-0.0540028 -0.00573713 0)
(-0.053166 -0.00675068 0)
(-0.0521941 -0.007738 0)
(-0.0510909 -0.00869422 0)
(-0.0498606 -0.00961433 0)
(-0.0485081 -0.0104932 0)
(-0.0470391 -0.0113255 0)
(-0.0454599 -0.0121058 0)
(-0.0437774 -0.0128287 0)
(-0.0419993 -0.0134886 0)
(-0.040134 -0.0140798 0)
(-0.0381906 -0.0145968 0)
(-0.0361788 -0.015034 0)
(-0.0341092 -0.015386 0)
(-0.0319928 -0.0156475 0)
(-0.0298415 -0.0158135 0)
(-0.0276674 -0.0158794 0)
(-0.0254837 -0.015841 0)
(-0.0233035 -0.0156947 0)
(-0.0211408 -0.0154376 0)
(-0.0190096 -0.0150676 0)
(-0.0169242 -0.0145837 0)
(-0.0148991 -0.0139858 0)
(-0.0129489 -0.0132756 0)
(-0.011088 -0.012456 0)
(-0.00933036 -0.0115319 0)
(-0.00768996 -0.0105103 0)
(-0.00618 -0.0094005 0)
(-0.00481303 -0.00821448 0)
(-0.00360058 -0.00696711 0)
(-0.0025528 -0.00567649 0)
(-0.00167776 -0.00436412 0)
(-0.000980395 -0.00305501 0)
(-0.000459938 -0.00177763 0)
(-0.000108652 -0.000563436 0)
(-0.000120944 0.000708673 0)
(-0.000510532 0.00218712 0)
(-0.00108444 0.00370371 0)
(-0.00184935 0.00522832 0)
(-0.00280427 0.00673367 0)
(-0.00394216 0.00819586 0)
(-0.00525281 0.00959448 0)
(-0.00672403 0.0109125 0)
(-0.00834248 0.0121361 0)
(-0.010094 0.0132543 0)
(-0.0119641 0.0142589 0)
(-0.0139378 0.0151441 0)
(-0.0160001 0.015906 0)
(-0.018136 0.0165426 0)
(-0.0203304 0.0170535 0)
(-0.0225687 0.0174396 0)
(-0.0248363 0.0177028 0)
(-0.0271191 0.0178462 0)
(-0.0294032 0.0178733 0)
(-0.0316754 0.0177884 0)
(-0.0339229 0.0175964 0)
(-0.0361335 0.0173022 0)
(-0.0382956 0.0169113 0)
(-0.0403983 0.0164291 0)
(-0.0424312 0.0158613 0)
(-0.0443845 0.0152135 0)
(-0.0462493 0.0144913 0)
(-0.0480171 0.0137003 0)
(-0.0496802 0.012846 0)
(-0.0512315 0.0119338 0)
(-0.0526643 0.0109688 0)
(-0.0539729 0.00995634 0)
(-0.055152 0.00890137 0)
(-0.0561968 0.0078088 0)
(-0.0571031 0.00668346 0)
(-0.0578674 0.00553007 0)
(-0.0584867 0.00435328 0)