/*--------------------------------*- C++ -*----------------------------------*\
| =========                 |                                                 |
| \\      /  F ield         | OpenFOAM: The Open Source CFD Toolbox           |
|  \\    /   O peration     | Version:  4.1                                   |
|   \\  /    A nd           | Web:      www.OpenFOAM.org                      |
|    \\/     M anipulation  |                                                 |
\*---------------------------------------------------------------------------*/
FoamFile
{
    version     2.0;
    format      ascii;
    class       volVectorField;
    location    "4.25";
    object      U;
}
// * * * * * * * * * * * * * * * * * * * * * * * * * * * * * * * * * * * * * //

dimensions      [0 1 -1 0 0 0 0];

internalField   nonuniform List<vector> 
400
(
(0.000148841 -0.000146034 0)
(-0.000158459 9.7354e-05 0)
(-0.00144152 0.000304763 0)
(-0.00334063 0.000454048 0)
(-0.00565562 0.0005235 0)
(-0.00810274 0.000542673 0)
(-0.0104979 0.000517113 0)
(-0.0126466 0.000451946 0)
(-0.0143706 0.000343114 0)
(-0.0154835 0.00018886 0)
(-0.015817 -7.13811e-06 0)
(-0.0152495 -0.000229351 0)
(-0.0137497 -0.000449493 0)
(-0.0114214 -0.000627073 0)
(-0.00851488 -0.000720506 0)
(-0.00543729 -0.000692522 0)
(-0.00264659 -0.000538866 0)
(-0.000638181 -0.000268548 0)
(0.000354123 2.0365e-05 0)
(0.00025669 0.000242652 0)
(-9.62251e-05 0.000149953 0)
(-0.00181932 0.00173778 0)
(-0.00558036 0.00316974 0)
(-0.0106045 0.00417435 0)
(-0.0164692 0.00467143 0)
(-0.0225705 0.00474491 0)
(-0.0284604 0.0044361 0)
(-0.0336715 0.00376873 0)
(-0.0377733 0.00274312 0)
(-0.0403439 0.00137685 0)
(-0.0410241 -0.00026657 0)
(-0.0395787 -0.0020505 0)
(-0.0359763 -0.00376036 0)
(-0.0304692 -0.00512114 0)
(-0.0236102 -0.00585465 0)
(-0.0162638 -0.00574407 0)
(-0.00940365 -0.00474985 0)
(-0.00407268 -0.00301627 0)
(-0.000792394 -0.00107316 0)
(0.000116641 0.000385249 0)
(-0.000360499 0.00152146 0)
(-0.00367227 0.0055883 0)
(-0.00986605 0.0089506 0)
(-0.0177004 0.0112282 0)
(-0.0265859 0.0123239 0)
(-0.0356976 0.012373 0)
(-0.0444125 0.0114571 0)
(-0.0520759 0.00962554 0)
(-0.0580846 0.00690147 0)
(-0.0618559 0.00335661 0)
(-0.0629003 -0.000827314 0)
(-0.0608971 -0.00530778 0)
(-0.0557933 -0.00957421 0)
(-0.0479066 -0.0129913 0)
(-0.0379538 -0.0149179 0)
(-0.0270869 -0.0148597 0)
(-0.016639 -0.0127037 0)
(-0.00810924 -0.00878585 0)
(-0.00232067 -0.00418409 0)
(-5.45262e-05 -0.000287613 0)
(-0.000613338 0.00382426 0)
(-0.00546249 0.0113513 0)
(-0.0139739 0.0171265 0)
(-0.0243967 0.020874 0)
(-0.0359869 0.0225899 0)
(-0.0477474 0.0224943 0)
(-0.0589451 0.0207201 0)
(-0.0688045 0.0173437 0)
(-0.0766069 0.0124149 0)
(-0.0816494 0.00606811 0)
(-0.0833246 -0.00137894 0)
(-0.081201 -0.00934803 0)
(-0.075136 -0.0169842 0)
(-0.0654088 -0.0232184 0)
(-0.052781 -0.0269455 0)
(-0.0385981 -0.0272779 0)
(-0.0245166 -0.023928 0)
(-0.0125624 -0.0173793 0)
(-0.00398155 -0.00927904 0)
(-0.000219153 -0.00174475 0)
(-0.000829227 0.00703544 0)
(-0.00708524 0.0190135 0)
(-0.0177567 0.0276856 0)
(-0.0305873 0.0330861 0)
(-0.044687 0.0354346 0)
(-0.0589174 0.035091 0)
(-0.0724807 0.0322598 0)
(-0.0845286 0.0270434 0)
(-0.094266 0.0195082 0)
(-0.100888 0.00983802 0)
(-0.103655 -0.00152595 0)
(-0.101973 -0.0137723 0)
(-0.0955199 -0.0256791 0)
(-0.0844144 -0.0356766 0)
(-0.0693386 -0.0420677 0)
(-0.0517508 -0.0433886 0)
(-0.0336379 -0.0389807 0)
(-0.0177052 -0.0293468 0)
(-0.00582573 -0.0167154 0)
(-0.000368154 -0.00406156 0)
(-0.00102083 0.0110304 0)
(-0.00854348 0.0283592 0)
(-0.0211865 0.040374 0)
(-0.0362296 0.0475984 0)
(-0.0526559 0.050609 0)
(-0.0692184 0.0499734 0)
(-0.0850938 0.0459946 0)
(-0.0994031 0.0387954 0)
(-0.111308 0.0284338 0)
(-0.119918 0.0151016 0)
(-0.12435 -0.000686024 0)
(-0.123799 -0.0179297 0)
(-0.117669 -0.0350576 0)
(-0.105785 -0.049955 0)
(-0.0885899 -0.0601881 0)
(-0.0675214 -0.0634607 0)
(-0.0448554 -0.0584155 0)
(-0.0241334 -0.0453139 0)
(-0.00813355 -0.0269332 0)
(-0.00055033 -0.00735032 0)
(-0.00118633 0.0157348 0)
(-0.00982079 0.0392377 0)
(-0.0242098 0.0550169 0)
(-0.0412242 0.0642448 0)
(-0.0597442 0.0679846 0)
(-0.0784496 0.0670823 0)
(-0.0965283 0.0619704 0)
(-0.113113 0.0527846 0)
(-0.12736 0.0395392 0)
(-0.138324 0.0223733 0)
(-0.14499 0.00179715 0)
(-0.146322 -0.0210877 0)
(-0.141383 -0.0444249 0)
(-0.129577 -0.0655554 0)
(-0.110912 -0.0811797 0)
(-0.0865728 -0.087859 0)
(-0.0589537 -0.0830514 0)
(-0.0325034 -0.0663015 0)
(-0.0112375 -0.0407605 0)
(-0.000813667 -0.0119317 0)
(-0.00132543 0.0210409 0)
(-0.0108948 0.0514253 0)
(-0.0267504 0.0713351 0)
(-0.04541 0.0827295 0)
(-0.065672 0.0872829 0)
(-0.0861788 0.0861936 0)
(-0.106165 0.0800594 0)
(-0.12482 0.0690248 0)
(-0.14135 0.0530242 0)
(-0.154807 0.0320747 0)
(-0.164098 0.00658202 0)
(-0.167994 -0.022375 0)
(-0.165215 -0.0527857 0)
(-0.154653 -0.0815346 0)
(-0.135677 -0.10441 0)
(-0.108879 -0.116536 0)
(-0.0763979 -0.113548 0)
(-0.0434298 -0.0934746 0)
(-0.0155211 -0.0593123 0)
(-0.001224 -0.0183026 0)
(-0.00143688 0.0268441 0)
(-0.0117407 0.0646811 0)
(-0.0287201 0.0890013 0)
(-0.0485864 0.102667 0)
(-0.0700666 0.10809 0)
(-0.0917999 0.106898 0)
(-0.1131 0.0999013 0)
(-0.133266 0.0872585 0)
(-0.151616 0.068801 0)
(-0.167288 0.0443643 0)
(-0.179215 0.014149 0)
(-0.186082 -0.0209394 0)
(-0.186355 -0.0589333 0)
(-0.178422 -0.0964731 0)
(-0.160862 -0.128557 0)
(-0.133284 -0.148717 0)
(-0.0969703 -0.150081 0)
(-0.0573011 -0.127957 0)
(-0.0213887 -0.0839843 0)
(-0.00186524 -0.0271927 0)
(-0.00152602 0.0330134 0)
(-0.0123665 0.0786969 0)
(-0.0300787 0.107572 0)
(-0.0505938 0.123492 0)
(-0.072565 0.129749 0)
(-0.0946636 0.128475 0)
(-0.116315 0.120757 0)
(-0.136984 0.106794 0)
(-0.156177 0.0863161 0)
(-0.173225 0.0589454 0)
(-0.187231 0.0246004 0)
(-0.196974 -0.0161365 0)
(-0.200853 -0.061586 0)
(-0.19689 -0.108489 0)
(-0.182882 -0.151414 0)
(-0.15713 -0.182466 0)
(-0.119348 -0.191746 0)
(-0.0740155 -0.170341 0)
(-0.0292341 -0.116254 0)
(-0.00285636 -0.0395747 0)
(-0.00162199 0.0394801 0)
(-0.0128589 0.0932094 0)
(-0.030901 0.126581 0)
(-0.0514045 0.144524 0)
(-0.0729347 0.151385 0)
(-0.0942472 0.149891 0)
(-0.114914 0.141488 0)
(-0.134633 0.126459 0)
(-0.15317 0.104468 0)
(-0.170169 0.0749321 0)
(-0.185055 0.0374569 0)
(-0.196907 -0.0078114 0)
(-0.204319 -0.0597256 0)
(-0.205231 -0.115558 0)
(-0.196879 -0.170053 0)
(-0.17619 -0.214504 0)
(-0.140728 -0.236007 0)
(-0.092585 -0.220011 0)
(-0.0393334 -0.157333 0)
(-0.00436484 -0.0566864 0)
(-0.00178267 0.0461797 0)
(-0.0134565 0.107909 0)
(-0.0314985 0.145441 0)
(-0.0512765 0.16487 0)
(-0.0712543 0.171841 0)
(-0.0903731 0.169767 0)
(-0.108406 0.160554 0)
(-0.125362 0.14462 0)
(-0.141343 0.121627 0)
(-0.156394 0.0908364 0)
(-0.17039 0.0515619 0)
(-0.182895 0.00347128 0)
(-0.192964 -0.0529949 0)
(-0.198818 -0.116052 0)
(-0.197588 -0.18136 0)
(-0.185133 -0.240485 0)
(-0.156769 -0.278388 0)
(-0.11071 -0.274332 0)
(-0.0516172 -0.20752 0)
(-0.0066152 -0.0799705 0)
(-0.00215727 0.0534576 0)
(-0.0146187 0.12291 0)
(-0.0324447 0.163829 0)
(-0.0507492 0.183699 0)
(-0.067899 0.189876 0)
(-0.0832165 0.186543 0)
(-0.0967555 0.176165 0)
(-0.108941 0.159342 0)
(-0.120259 0.135794 0)
(-0.131219 0.104691 0)
(-0.14221 0.0651213 0)
(-0.153381 0.0163119 0)
(-0.164453 -0.04205 0)
(-0.174267 -0.109382 0)
(-0.180448 -0.18293 0)
(-0.178457 -0.255878 0)
(-0.162001 -0.312865 0)
(-0.124511 -0.328111 0)
(-0.0652574 -0.265337 0)
(-0.00987107 -0.110939 0)
(-0.00298206 0.061549 0)
(-0.0172334 0.138043 0)
(-0.0348319 0.181033 0)
(-0.0508627 0.199743 0)
(-0.0636527 0.203842 0)
(-0.0733067 0.198327 0)
(-0.0802851 0.186288 0)
(-0.0855672 0.168508 0)
(-0.0900571 0.144798 0)
(-0.094738 0.114297 0)
(-0.100502 0.0759531 0)
(-0.108086 0.0286543 0)
(-0.117958 -0.0285633 0)
(-0.129803 -0.0963297 0)
(-0.142308 -0.173836 0)
(-0.151402 -0.257105 0)
(-0.150573 -0.332894 0)
(-0.128609 -0.373645 0)
(-0.0781061 -0.326487 0)
(-0.01435 -0.150643 0)
(-0.00478954 0.0726488 0)
(-0.0224731 0.154871 0)
(-0.0396755 0.197421 0)
(-0.0522556 0.21219 0)
(-0.0586484 0.212209 0)
(-0.0603972 0.203195 0)
(-0.0585095 0.188821 0)
(-0.0546761 0.16994 0)
(-0.0502077 0.146419 0)
(-0.046528 0.117371 0)
(-0.0449554 0.08167 0)
(-0.0467345 0.0380014 0)
(-0.0530349 -0.0150435 0)
(-0.0644322 -0.0790559 0)
(-0.0810643 -0.155085 0)
(-0.100105 -0.242646 0)
(-0.116703 -0.333005 0)
(-0.116325 -0.401856 0)
(-0.0859648 -0.383403 0)
(-0.0200041 -0.199191 0)
(-0.00840435 0.0868119 0)
(-0.0327713 0.172159 0)
(-0.0486018 0.210611 0)
(-0.0552817 0.218031 0)
(-0.0517153 0.211876 0)
(-0.0421973 0.198262 0)
(-0.0284059 0.181182 0)
(-0.0128908 0.161341 0)
(0.00272966 0.138547 0)
(0.0167028 0.111877 0)
(0.0274314 0.0801743 0)
(0.0333168 0.0420654 0)
(0.0326352 -0.00404651 0)
(0.0240469 -0.0602695 0)
(0.0058817 -0.128987 0)
(-0.0207185 -0.212959 0)
(-0.054412 -0.309496 0)
(-0.0796621 -0.403113 0)
(-0.0819036 -0.424305 0)
(-0.0259345 -0.253335 0)
(-0.0149133 0.114209 0)
(-0.0475209 0.195083 0)
(-0.0570193 0.221405 0)
(-0.0519456 0.215119 0)
(-0.0325258 0.199626 0)
(-0.00717929 0.180237 0)
(0.0219568 0.160377 0)
(0.0515739 0.140124 0)
(0.0800111 0.118947 0)
(0.105424 0.0958082 0)
(0.12617 0.0695307 0)
(0.140515 0.038796 0)
(0.146428 0.00204143 0)
(0.142039 -0.0428754 0)
(0.124412 -0.0989344 0)
(0.0929593 -0.170969 0)
(0.0443421 -0.262305 0)
(-0.0078069 -0.370446 0)
(-0.0542947 -0.435668 0)
(-0.0288485 -0.307453 0)
(-0.0256751 0.142583 0)
(-0.0666597 0.20864 0)
(-0.0510581 0.214166 0)
(-0.020087 0.191319 0)
(0.0259526 0.166969 0)
(0.073328 0.143805 0)
(0.120964 0.12334 0)
(0.165694 0.104785 0)
(0.206548 0.0871192 0)
(0.242165 0.0692349 0)
(0.271288 0.0500145 0)
(0.292402 0.0283432 0)
(0.303535 0.00291611 0)
(0.302574 -0.0279667 0)
(0.285895 -0.0670504 0)
(0.25139 -0.119255 0)
(0.191277 -0.19182 0)
(0.114647 -0.29519 0)
(0.0155751 -0.39406 0)
(-0.0175693 -0.337838 0)
(-0.0185653 0.215351 0)
(-0.0195005 0.215721 0)
(0.0562532 0.180879 0)
(0.126952 0.138705 0)
(0.201943 0.108331 0)
(0.268109 0.0860543 0)
(0.327846 0.0691712 0)
(0.379997 0.05583 0)
(0.425053 0.0444694 0)
(0.462793 0.0340048 0)
(0.492776 0.0235239 0)
(0.514104 0.0122665 0)
(0.525328 -0.000616709 0)
(0.524552 -0.0160962 0)
(0.508475 -0.0361367 0)
(0.474038 -0.0641077 0)
(0.411455 -0.108164 0)
(0.321733 -0.186527 0)
(0.171884 -0.296376 0)
(0.0426926 -0.334847 0)
(0.211529 0.129836 0)
(0.297909 0.101184 0)
(0.451897 0.0674787 0)
(0.543595 0.0441079 0)
(0.617509 0.0287586 0)
(0.672361 0.0195065 0)
(0.715282 0.0135716 0)
(0.749094 0.00964287 0)
(0.775878 0.00679841 0)
(0.796667 0.00451768 0)
(0.811862 0.00245169 0)
(0.821337 0.000371368 0)
(0.824495 -0.00194707 0)
(0.820231 -0.00468604 0)
(0.80658 -0.00838271 0)
(0.780493 -0.0136213 0)
(0.7339 -0.0228977 0)
(0.658389 -0.0407778 0)
(0.498041 -0.0744311 0)
(0.288325 -0.136269 0)
)
;

boundaryField
{
    movingWall
    {
        type            fixedValue;
        value           uniform (1 0 0);
    }
    fixedWalls
    {
        type            noSlip;
    }
    frontAndBack
    {
        type            empty;
    }
}


// ************************************************************************* //
