/*--------------------------------*- C++ -*----------------------------------*\
| =========                 |                                                 |
| \\      /  F ield         | OpenFOAM: The Open Source CFD Toolbox           |
|  \\    /   O peration     | Version:  4.1                                   |
|   \\  /    A nd           | Web:      www.OpenFOAM.org                      |
|    \\/     M anipulation  |                                                 |
\*---------------------------------------------------------------------------*/
FoamFile
{
    version     2.0;
    format      ascii;
    class       volVectorField;
    location    "0.072";
    object      U;
}
// * * * * * * * * * * * * * * * * * * * * * * * * * * * * * * * * * * * * * //

dimensions      [0 1 -1 0 0 0 0];

internalField   nonuniform List<vector> 
100
(
(-0.00207194 0.00166007 0)
(-0.00530869 0.00174602 0)
(-0.0118097 0.00176742 0)
(-0.0147659 0.000701292 0)
(-0.0177691 0.000272854 0)
(-0.0180893 -0.00113248 0)
(-0.0161627 -0.0016702 0)
(-0.0133179 -0.00299279 0)
(-0.0063523 -0.00307612 0)
(-0.00266798 -0.00294899 0)
(-0.0032309 0.00576431 0)
(-0.00972382 0.00789686 0)
(-0.02039 0.00798087 0)
(-0.0256612 0.00500966 0)
(-0.0303614 0.00345564 0)
(-0.0308473 -0.000772685 0)
(-0.0277266 -0.00271519 0)
(-0.0226254 -0.00705596 0)
(-0.0113253 -0.00737125 0)
(-0.00395718 -0.00603987 0)
(-0.00382174 0.0146534 0)
(-0.0115012 0.0187152 0)
(-0.0237507 0.0179956 0)
(-0.029901 0.0102387 0)
(-0.0355246 0.00576597 0)
(-0.0362914 -0.00435973 0)
(-0.033248 -0.00973273 0)
(-0.0274681 -0.0200294 0)
(-0.0144469 -0.0218713 0)
(-0.00529774 -0.018586 0)
(-0.00596925 0.0209188 0)
(-0.0163285 0.0275335 0)
(-0.0321284 0.0266185 0)
(-0.0402027 0.0164814 0)
(-0.0472113 0.0104385 0)
(-0.0486403 -0.00319783 0)
(-0.0455969 -0.0107177 0)
(-0.0385068 -0.0257425 0)
(-0.0217739 -0.0287345 0)
(-0.00836751 -0.0252168 0)
(-0.0070451 0.0372576 0)
(-0.0191404 0.0446087 0)
(-0.037287 0.0424658 0)
(-0.0467268 0.0245938 0)
(-0.0554156 0.0146458 0)
(-0.0578518 -0.00708088 0)
(-0.0563723 -0.0198006 0)
(-0.0492469 -0.0452502 0)
(-0.030652 -0.0525461 0)
(-0.0126419 -0.0498377 0)
(-0.0138515 0.0465068 0)
(-0.032507 0.0571054 0)
(-0.0557232 0.0544401 0)
(-0.0684755 0.0340796 0)
(-0.0785474 0.0225263 0)
(-0.0827904 -0.00239236 0)
(-0.0836411 -0.0177642 0)
(-0.0760655 -0.0510472 0)
(-0.0535129 -0.0635164 0)
(-0.0229115 -0.0672109 0)
(-0.0157735 0.0846516 0)
(-0.0376082 0.0858893 0)
(-0.0628878 0.0797791 0)
(-0.0767394 0.0460676 0)
(-0.0882181 0.0297713 0)
(-0.0933273 -0.00404338 0)
(-0.0991779 -0.0264128 0)
(-0.0943601 -0.0782404 0)
(-0.07636 -0.106836 0)
(-0.0344381 -0.12927 0)
(-0.0400859 0.0979841 0)
(-0.0744774 0.10272 0)
(-0.0893433 0.0938406 0)
(-0.0994244 0.0584293 0)
(-0.10347 0.0407203 0)
(-0.106571 0.00823263 0)
(-0.118625 -0.0138877 0)
(-0.114139 -0.0729924 0)
(-0.107821 -0.119335 0)
(-0.0486332 -0.175322 0)
(-0.0349858 0.20222 0)
(-0.0353912 0.133412 0)
(-0.0206116 0.107861 0)
(-0.00437049 0.0577762 0)
(0.00594896 0.0384524 0)
(0.0220732 0.00762413 0)
(0.013998 -0.0181458 0)
(0.0245936 -0.0943265 0)
(-0.011242 -0.173728 0)
(-0.00154938 -0.294365 0)
(0.149947 0.162266 0)
(0.230541 0.0858034 0)
(0.358859 0.0644745 0)
(0.408994 0.0311972 0)
(0.444745 0.0175152 0)
(0.467973 0.000163692 0)
(0.450551 -0.0105615 0)
(0.442437 -0.0444362 0)
(0.308704 -0.0811986 0)
(0.191173 -0.175392 0)
)
;

boundaryField
{
    movingWall
    {
        type            fixedValue;
        value           uniform (1 0 0);
    }
    fixedWalls
    {
        type            noSlip;
    }
    frontAndBack
    {
        type            empty;
    }
}


// ************************************************************************* //
