/*--------------------------------*- C++ -*----------------------------------*\
| =========                 |                                                 |
| \\      /  F ield         | OpenFOAM: The Open Source CFD Toolbox           |
|  \\    /   O peration     | Version:  4.1                                   |
|   \\  /    A nd           | Web:      www.OpenFOAM.org                      |
|    \\/     M anipulation  |                                                 |
\*---------------------------------------------------------------------------*/
FoamFile
{
    version     2.0;
    format      ascii;
    class       volVectorField;
    location    "0.054";
    object      U;
}
// * * * * * * * * * * * * * * * * * * * * * * * * * * * * * * * * * * * * * //

dimensions      [0 1 -1 0 0 0 0];

internalField   nonuniform List<vector> 
1600
(
(1.17136e-05 -1.31136e-05 0)
(4.73856e-06 3.4984e-05 0)
(-9.04078e-05 0.000120383 0)
(-0.000292794 0.000218119 0)
(-0.00060472 0.000313682 0)
(-0.00101734 0.000398893 0)
(-0.00151565 0.000469237 0)
(-0.00208138 0.000522481 0)
(-0.00269486 0.00055783 0)
(-0.00333624 0.000575411 0)
(-0.00398627 0.000575942 0)
(-0.00462675 0.000560517 0)
(-0.00524089 0.000530465 0)
(-0.0058135 0.000487259 0)
(-0.00633105 0.00043246 0)
(-0.00678179 0.00036768 0)
(-0.00715576 0.000294568 0)
(-0.00744483 0.000214803 0)
(-0.0076427 0.000130097 0)
(-0.00774497 4.21979e-05 0)
(-0.00774914 -4.70971e-05 0)
(-0.00765469 -0.000135941 0)
(-0.00746311 -0.000222434 0)
(-0.00717795 -0.000304622 0)
(-0.0068049 -0.000380512 0)
(-0.0063518 -0.000448092 0)
(-0.00582868 -0.000505355 0)
(-0.00524773 -0.000550345 0)
(-0.00462321 -0.000581211 0)
(-0.00397138 -0.000596274 0)
(-0.00331022 -0.00059412 0)
(-0.00265917 -0.000573714 0)
(-0.00203866 -0.000534555 0)
(-0.00146943 -0.000476887 0)
(-0.000971661 -0.000402015 0)
(-0.00056362 -0.000312784 0)
(-0.00025969 -0.000214355 0)
(-6.74891e-05 -0.000115488 0)
(1.70098e-05 -3.09781e-05 0)
(1.47395e-05 1.49662e-05 0)
(-3.84699e-05 -8.5214e-06 0)
(-0.000217304 0.000208013 0)
(-0.000619022 0.000561972 0)
(-0.00128424 0.000960752 0)
(-0.0022184 0.00134935 0)
(-0.00340111 0.00169557 0)
(-0.00479651 0.00198123 0)
(-0.00635976 0.00219711 0)
(-0.00804156 0.00233974 0)
(-0.00979129 0.00240944 0)
(-0.0115592 0.00240898 0)
(-0.0132976 0.00234275 0)
(-0.0149625 0.00221612 0)
(-0.0165132 0.00203513 0)
(-0.0179139 0.00180618 0)
(-0.0191329 0.00153595 0)
(-0.0201436 0.00123125 0)
(-0.0209242 0.00089905 0)
(-0.0214577 0.000546441 0)
(-0.0217325 0.000180681 0)
(-0.021742 -0.000190794 0)
(-0.0214849 -0.000560344 0)
(-0.0209654 -0.000920114 0)
(-0.0201934 -0.00126205 0)
(-0.0191843 -0.00157795 0)
(-0.0179591 -0.00185954 0)
(-0.0165449 -0.00209857 0)
(-0.0149741 -0.00228703 0)
(-0.0132845 -0.00241735 0)
(-0.011519 -0.00248268 0)
(-0.00972474 -0.00247728 0)
(-0.00795206 -0.00239698 0)
(-0.00625355 -0.00223981 0)
(-0.00468196 -0.00200688 0)
(-0.00328781 -0.00170362 0)
(-0.00211601 -0.00134162 0)
(-0.00120109 -0.000941573 0)
(-0.00056072 -0.000537971 0)
(-0.000185526 -0.000187319 0)
(-3.04518e-05 1.81485e-05 0)
(-0.000126521 8.33923e-05 0)
(-0.000580456 0.000603283 0)
(-0.00137189 0.00133854 0)
(-0.00254525 0.00214045 0)
(-0.00410398 0.00291431 0)
(-0.00601804 0.00360153 0)
(-0.00823604 0.00416757 0)
(-0.0106934 0.00459406 0)
(-0.0133184 0.00487356 0)
(-0.0160367 0.00500608 0)
(-0.0187746 0.00499662 0)
(-0.0214612 0.00485354 0)
(-0.02403 0.0045874 0)
(-0.0264201 0.00421023 0)
(-0.028577 0.00373495 0)
(-0.0304529 0.00317509 0)
(-0.0320071 0.00254459 0)
(-0.0332066 0.00185774 0)
(-0.0340257 0.00112911 0)
(-0.0344466 0.000373647 0)
(-0.0344596 -0.000393369 0)
(-0.0340629 -0.00115623 0)
(-0.0332632 -0.00189884 0)
(-0.0320754 -0.00260471 0)
(-0.0305232 -0.0032571 0)
(-0.0286389 -0.00383916 0)
(-0.0264631 -0.0043342 0)
(-0.0240452 -0.00472604 0)
(-0.021442 -0.00499949 0)
(-0.0187177 -0.00514093 0)
(-0.0159428 -0.00513906 0)
(-0.0131922 -0.0049859 0)
(-0.0105433 -0.00467799 0)
(-0.00807362 -0.00421805 0)
(-0.00585659 -0.00361729 0)
(-0.00395707 -0.00289862 0)
(-0.00242483 -0.00210148 0)
(-0.00128638 -0.00128904 0)
(-0.000533032 -0.000559486 0)
(-0.000114132 -6.26e-05 0)
(-0.000230711 0.000283496 0)
(-0.00100451 0.00126813 0)
(-0.00222632 0.00250652 0)
(-0.00393245 0.00381031 0)
(-0.00611727 0.00505166 0)
(-0.00873883 0.00614733 0)
(-0.0117313 0.00704614 0)
(-0.0150132 0.0077198 0)
(-0.0184948 0.00815623 0)
(-0.0220826 0.00835479 0)
(-0.0256836 0.00832285 0)
(-0.0292081 0.00807333 0)
(-0.0325717 0.00762291 0)
(-0.0356968 0.00699079 0)
(-0.0385139 0.00619787 0)
(-0.0409617 0.00526616 0)
(-0.0429884 0.00421848 0)
(-0.0445516 0.00307826 0)
(-0.0456185 0.00186951 0)
(-0.0461663 0.000616811 0)
(-0.0461827 -0.000654645 0)
(-0.0456656 -0.00191902 0)
(-0.0446235 -0.00314985 0)
(-0.0430759 -0.00432011 0)
(-0.041053 -0.0054024 0)
(-0.0385962 -0.00636923 0)
(-0.0357574 -0.00719345 0)
(-0.0325994 -0.00784887 0)
(-0.0291945 -0.00831099 0)
(-0.0256244 -0.00855804 0)
(-0.0219779 -0.00857215 0)
(-0.0183497 -0.00834092 0)
(-0.0148374 -0.00785934 0)
(-0.0115383 -0.00713223 0)
(-0.00854472 -0.00617754 0)
(-0.00593863 -0.00503069 0)
(-0.00378432 -0.00375059 0)
(-0.00211982 -0.00242795 0)
(-0.000944579 -0.00119679 0)
(-0.000214695 -0.000248922 0)
(-0.000339818 0.000599616 0)
(-0.0014479 0.00222425 0)
(-0.00311495 0.00409589 0)
(-0.0053631 0.0060009 0)
(-0.00817221 0.00778662 0)
(-0.0114853 0.00934939 0)
(-0.0152209 0.0106233 0)
(-0.0192817 0.0115706 0)
(-0.0235616 0.0121751 0)
(-0.0279507 0.0124356 0)
(-0.0323398 0.0123623 0)
(-0.0366237 0.0119733 0)
(-0.0407032 0.0112922 0)
(-0.0444873 0.0103465 0)
(-0.0478938 0.00916641 0)
(-0.0508511 0.00778378 0)
(-0.0532979 0.00623181 0)
(-0.0551842 0.00454471 0)
(-0.0564715 0.00275757 0)
(-0.0571331 0.00090635 0)
(-0.0571543 -0.00097209 0)
(-0.0565327 -0.00283998 0)
(-0.0552785 -0.00465864 0)
(-0.0534144 -0.00638868 0)
(-0.0509761 -0.00799017 0)
(-0.0480119 -0.00942317 0)
(-0.0445832 -0.0106483 0)
(-0.0407633 -0.0116278 0)
(-0.0366372 -0.0123262 0)
(-0.0323006 -0.0127124 0)
(-0.0278576 -0.0127608 0)
(-0.0234194 -0.0124541 0)
(-0.0191005 -0.0117851 0)
(-0.0150154 -0.0107608 0)
(-0.0112735 -0.00940577 0)
(-0.00797359 -0.00776759 0)
(-0.00519563 -0.00592333 0)
(-0.00299267 -0.00398767 0)
(-0.00137801 -0.0021229 0)
(-0.000320771 -0.000549372 0)
(-0.000448691 0.00103215 0)
(-0.0018909 0.00347688 0)
(-0.00400434 0.00611701 0)
(-0.00679463 0.0087243 0)
(-0.0102239 0.0111291 0)
(-0.0142172 0.0132124 0)
(-0.0186759 0.0148966 0)
(-0.0234864 0.0161367 0)
(-0.0285266 0.0169131 0)
(-0.0336716 0.0172252 0)
(-0.0387981 0.0170869 0)
(-0.0437873 0.0165223 0)
(-0.0485277 0.0155629 0)
(-0.0529169 0.0142455 0)
(-0.0568628 0.0126108 0)
(-0.0602849 0.0107017 0)
(-0.0631144 0.00856309 0)
(-0.0652952 0.0062413 0)
(-0.0667843 0.0037839 0)
(-0.0675515 0.00123966 0)
(-0.0675803 -0.00134144 0)
(-0.066868 -0.0039082 0)
(-0.0654256 -0.00640823 0)
(-0.0632785 -0.00878816 0)
(-0.0604664 -0.010994 0)
(-0.0570434 -0.0129718 0)
(-0.0530778 -0.0146684 0)
(-0.0486518 -0.0160328 0)
(-0.0438605 -0.0170173 0)
(-0.0388112 -0.0175801 0)
(-0.0336213 -0.0176869 0)
(-0.028416 -0.017314 0)
(-0.0233251 -0.0164516 0)
(-0.0184794 -0.0151077 0)
(-0.0140052 -0.0133127 0)
(-0.0100183 -0.0111247 0)
(-0.00661676 -0.00863637 0)
(-0.00387163 -0.005982 0)
(-0.00181357 -0.0033452 0)
(-0.000427165 -0.000965083 0)
(-0.000555389 0.0015786 0)
(-0.00232596 0.005024 0)
(-0.00488117 0.00857087 0)
(-0.00820985 0.0119836 0)
(-0.0122546 0.015082 0)
(-0.0169206 0.0177367 0)
(-0.0220905 0.0198622 0)
(-0.027633 0.0214089 0)
(-0.0334102 0.0223558 0)
(-0.0392826 0.0227045 0)
(-0.0451134 0.0224737 0)
(-0.0507721 0.0216947 0)
(-0.0561362 0.0204081 0)
(-0.0610939 0.0186612 0)
(-0.0655446 0.0165062 0)
(-0.0694007 0.0139981 0)
(-0.0725873 0.0111946 0)
(-0.0750436 0.00815543 0)
(-0.0767226 0.0049416 0)
(-0.0775914 0.00161586 0)
(-0.0776319 -0.00175753 0)
(-0.0768408 -0.00511276 0)
(-0.0752298 -0.00838249 0)
(-0.0728259 -0.0114981 0)
(-0.0696717 -0.0143904 0)
(-0.0658255 -0.0169897 0)
(-0.0613612 -0.0192279 0)
(-0.0563678 -0.0210391 0)
(-0.0509491 -0.0223623 0)
(-0.0452222 -0.0231431 0)
(-0.039316 -0.0233371 0)
(-0.0333686 -0.0229132 0)
(-0.0275246 -0.0218572 0)
(-0.0219305 -0.0201767 0)
(-0.0167302 -0.017906 0)
(-0.0120583 -0.0151115 0)
(-0.00803256 -0.0118984 0)
(-0.00474451 -0.00841611 0)
(-0.00224417 -0.0048642 0)
(-0.000532032 -0.00149439 0)
(-0.000659713 0.00223579 0)
(-0.0027522 0.00686124 0)
(-0.00574373 0.0114549 0)
(-0.00960686 0.0157782 0)
(-0.0142639 0.0196456 0)
(-0.0195987 0.0229219 0)
(-0.0254737 0.0255175 0)
(-0.0317391 0.0273812 0)
(-0.0382403 0.0284934 0)
(-0.0448233 0.0288598 0)
(-0.0513384 0.0285057 0)
(-0.0576437 0.0274713 0)
(-0.0636075 0.0258075 0)
(-0.0691093 0.0235733 0)
(-0.0740418 0.0208334 0)
(-0.0783113 0.0176563 0)
(-0.0818383 0.0141133 0)
(-0.0845579 0.0102781 0)
(-0.08642 0.00622649 0)
(-0.0873897 0.00203581 0)
(-0.0874473 -0.00221451 0)
(-0.0865886 -0.00644312 0)
(-0.0848254 -0.0105668 0)
(-0.0821857 -0.0145008 0)
(-0.078714 -0.0181592 0)
(-0.0744714 -0.0214559 0)
(-0.069536 -0.0243062 0)
(-0.0640023 -0.0266281 0)
(-0.0579811 -0.0283453 0)
(-0.0515982 -0.0293896 0)
(-0.0449928 -0.0297047 0)
(-0.0383157 -0.0292497 0)
(-0.0317256 -0.0280046 0)
(-0.0253857 -0.0259741 0)
(-0.0194581 -0.023194 0)
(-0.0140978 -0.0197365 0)
(-0.00944438 -0.0157156 0)
(-0.0056116 -0.0112925 0)
(-0.0026699 -0.00667871 0)
(-0.000635391 -0.0021352 0)
(-0.000762359 0.00300116 0)
(-0.00317229 0.00898477 0)
(-0.0065967 0.0147664 0)
(-0.0109925 0.0201075 0)
(-0.0162613 0.0248204 0)
(-0.0222649 0.0287684 0)
(-0.0288439 0.0318616 0)
(-0.0358291 0.0340506 0)
(-0.0430485 0.0353201 0)
(-0.0503332 0.0356824 0)
(-0.0575209 0.0351718 0)
(-0.0644591 0.0338388 0)
(-0.0710069 0.0317466 0)
(-0.0770369 0.0289671 0)
(-0.0824358 0.0255788 0)
(-0.0871052 0.0216644 0)
(-0.0909617 0.0173098 0)
(-0.0939374 0.0126037 0)
(-0.0959798 0.00763681 0)
(-0.097052 0.00250191 0)
(-0.0971328 -0.00270584 0)
(-0.0962174 -0.00788902 0)
(-0.0943169 -0.0129479 0)
(-0.0914595 -0.0177805 0)
(-0.0876905 -0.0222837 0)
(-0.0830728 -0.0263537 0)
(-0.0776873 -0.0298877 0)
(-0.0716328 -0.0327865 0)
(-0.0650257 -0.0349566 0)
(-0.0579996 -0.036314 0)
(-0.0507035 -0.0367882 0)
(-0.0433001 -0.0363269 0)
(-0.0359629 -0.0349008 0)
(-0.028872 -0.0325097 0)
(-0.0222095 -0.0291878 0)
(-0.0161522 -0.0250097 0)
(-0.0108632 -0.0200955 0)
(-0.00648016 -0.014615 0)
(-0.0030947 -0.00878892 0)
(-0.000738256 -0.00288631 0)
(-0.00086445 0.00387327 0)
(-0.00359056 0.0113928 0)
(-0.00744786 0.018505 0)
(-0.012378 0.0249725 0)
(-0.0182617 0.0306089 0)
(-0.0249373 0.0352791 0)
(-0.0322232 0.0388966 0)
(-0.0399294 0.0414174 0)
(-0.047866 0.0428337 0)
(-0.0558486 0.0431676 0)
(-0.0637024 0.0424644 0)
(-0.0712644 0.0407879 0)
(-0.0783859 0.0382148 0)
(-0.0849329 0.0348318 0)
(-0.0907873 0.0307321 0)
(-0.0958469 0.0260137 0)
(-0.100026 0.020778 0)
(-0.103253 0.0151289 0)
(-0.105475 0.00917273 0)
(-0.106653 0.00301797 0)
(-0.106764 -0.00322422 0)
(-0.105803 -0.00943997 0)
(-0.10378 -0.0155126 0)
(-0.100721 -0.0213226 0)
(-0.0966735 -0.0267486 0)
(-0.0916995 -0.0316682 0)
(-0.0858817 -0.0359596 0)
(-0.079322 -0.0395042 0)
(-0.0721414 -0.0421898 0)
(-0.0644801 -0.0439144 0)
(-0.0564964 -0.0445909 0)
(-0.0483649 -0.0441521 0)
(-0.040274 -0.0425572 0)
(-0.0324217 -0.0397973 0)
(-0.0250112 -0.035902 0)
(-0.0182429 -0.030945 0)
(-0.0123053 -0.0250494 0)
(-0.00736113 -0.0183908 0)
(-0.0035245 -0.0111981 0)
(-0.000842132 -0.00374811 0)
(-0.000967262 0.00485211 0)
(-0.00401199 0.0140864 0)
(-0.00830628 0.0226732 0)
(-0.0137764 0.0303775 0)
(-0.0202816 0.0370161 0)
(-0.0276361 0.0424589 0)
(-0.0356347 0.0466264 0)
(-0.0440658 0.0494836 0)
(-0.0527209 0.0510339 0)
(-0.0613999 0.0513122 0)
(-0.0699152 0.0503784 0)
(-0.0780942 0.0483112 0)
(-0.0857805 0.0452036 0)
(-0.0928348 0.0411582 0)
(-0.0991351 0.0362846 0)
(-0.104576 0.0306971 0)
(-0.109071 0.0245129 0)
(-0.112546 0.0178517 0)
(-0.114948 0.0108356 0)
(-0.116235 0.00358884 0)
(-0.116385 -0.00376136 0)
(-0.11539 -0.0110847 0)
(-0.113259 -0.0182473 0)
(-0.110017 -0.0251119 0)
(-0.105709 -0.0315384 0)
(-0.100398 -0.0373848 0)
(-0.0941657 -0.0425091 0)
(-0.0871161 -0.0467719 0)
(-0.0793735 -0.0500399 0)
(-0.0710839 -0.0521907 0)
(-0.062414 -0.0531175 0)
(-0.0535501 -0.0527355 0)
(-0.0446958 -0.0509881 0)
(-0.0360681 -0.0478544 0)
(-0.0278922 -0.0433554 0)
(-0.0203939 -0.0375606 0)
(-0.0137888 -0.030593 0)
(-0.00826702 -0.022632 0)
(-0.00396608 -0.0139134 0)
(-0.000948736 -0.00472281 0)
(-0.00107209 0.00593905 0)
(-0.00444161 0.0170694 0)
(-0.00918114 0.0272772 0)
(-0.015201 0.03633 0)
(-0.0223378 0.0440499 0)
(-0.0303807 0.050315 0)
(-0.0390996 0.0550564 0)
(-0.0482607 0.0582522 0)
(-0.0576359 0.0599208 0)
(-0.0670093 0.0601135 0)
(-0.0761809 0.0589079 0)
(-0.0849687 0.0564008 0)
(-0.0932096 0.0527034 0)
(-0.10076 0.0479364 0)
(-0.107495 0.0422272 0)
(-0.113308 0.0357069 0)
(-0.11811 0.0285092 0)
(-0.12183 0.0207701 0)
(-0.12441 0.0126271 0)
(-0.125811 0.00422016 0)
(-0.126008 -0.00430779 0)
(-0.124992 -0.0128102 0)
(-0.122769 -0.0211364 0)
(-0.119364 -0.0291311 0)
(-0.114817 -0.0366352 0)
(-0.10919 -0.0434865 0)
(-0.102564 -0.0495214 0)
(-0.095042 -0.054578 0)
(-0.0867516 -0.0585001 0)
(-0.0778426 -0.0611416 0)
(-0.0684893 -0.0623729 0)
(-0.0588894 -0.0620875 0)
(-0.0492615 -0.0602093 0)
(-0.0398423 -0.0567008 0)
(-0.0308805 -0.0515704 0)
(-0.022629 -0.0448793 0)
(-0.0153326 -0.0367474 0)
(-0.00921068 -0.0273556 0)
(-0.00442635 -0.0169461 0)
(-0.00105983 -0.00581458 0)
(-0.00118017 0.00713685 0)
(-0.00488425 0.0203486 0)
(-0.0100812 0.0323262 0)
(-0.016664 0.0428402 0)
(-0.0244455 0.0517204 0)
(-0.033188 0.0588559 0)
(-0.0426357 0.0641926 0)
(-0.0525311 0.0677256 0)
(-0.0626263 0.0694929 0)
(-0.0726895 0.0695663 0)
(-0.0825085 0.0680445 0)
(-0.0918928 0.0650457 0)
(-0.100674 0.0607018 0)
(-0.108704 0.0551537 0)
(-0.115858 0.0485477 0)
(-0.122029 0.0410329 0)
(-0.127128 0.0327601 0)
(-0.131084 0.023881 0)
(-0.133841 0.0145486 0)
(-0.135358 0.00491803 0)
(-0.135611 -0.00485272 0)
(-0.134587 -0.0146015 0)
(-0.132292 -0.0241612 0)
(-0.128745 -0.033359 0)
(-0.123984 -0.0420167 0)
(-0.118068 -0.0499511 0)
(-0.111075 -0.0569763 0)
(-0.103105 -0.0629062 0)
(-0.0942868 -0.0675588 0)
(-0.0847726 -0.0707618 0)
(-0.0747435 -0.0723587 0)
(-0.0644072 -0.0722169 0)
(-0.0539977 -0.0702363 0)
(-0.0437714 -0.0663577 0)
(-0.0340018 -0.0605719 0)
(-0.0249707 -0.0529278 0)
(-0.0169545 -0.0435382 0)
(-0.0102046 -0.0325836 0)
(-0.00491211 -0.0203116 0)
(-0.00117714 -0.00702948 0)
(-0.00129265 0.00844947 0)
(-0.00534434 0.0239334 0)
(-0.0110144 0.0378325 0)
(-0.0181767 0.0499214 0)
(-0.026618 0.0600394 0)
(-0.0360722 0.0680906 0)
(-0.046256 0.0740396 0)
(-0.0568875 0.0779039 0)
(-0.0676986 0.0797452 0)
(-0.0784415 0.0796608 0)
(-0.0888927 0.0777743 0)
(-0.0988538 0.074229 0)
(-0.108152 0.0691804 0)
(-0.116639 0.0627914 0)
(-0.124189 0.0552289 0)
(-0.130697 0.0466608 0)
(-0.136075 0.0372548 0)
(-0.140256 0.0271787 0)
(-0.143183 0.0166002 0)
(-0.144819 0.00568866 0)
(-0.145135 -0.00538383 0)
(-0.144119 -0.0164405 0)
(-0.141772 -0.0272988 0)
(-0.138111 -0.0377689 0)
(-0.133168 -0.0476537 0)
(-0.126997 -0.0567491 0)
(-0.11967 -0.0648457 0)
(-0.111286 -0.0717316 0)
(-0.101968 -0.0771966 0)
(-0.0918724 -0.0810385 0)
(-0.0811827 -0.0830701 0)
(-0.0701166 -0.0831278 0)
(-0.0589221 -0.0810816 0)
(-0.047876 -0.0768452 0)
(-0.0372775 -0.0703862 0)
(-0.0274389 -0.0617357 0)
(-0.018671 -0.0509955 0)
(-0.0112603 -0.0383427 0)
(-0.00542976 -0.0240294 0)
(-0.00130231 -0.00837538 0)
(-0.00141062 0.00988205 0)
(-0.00582604 0.0278355 0)
(-0.011988 0.0438111 0)
(-0.0197487 0.0575885 0)
(-0.0288661 0.0690193 0)
(-0.0390435 0.078027 0)
(-0.0499682 0.0845997 0)
(-0.061333 0.0887826 0)
(-0.0728491 0.0906669 0)
(-0.0842534 0.0903801 0)
(-0.0953118 0.0880758 0)
(-0.10582 0.0839257 0)
(-0.115603 0.0781122 0)
(-0.124512 0.0708227 0)
(-0.132425 0.0622458 0)
(-0.139239 0.052569 0)
(-0.144871 0.0419774 0)
(-0.149257 0.0306537 0)
(-0.152345 0.0187798 0)
(-0.154095 0.00653786 0)
(-0.154481 -0.00588723 0)
(-0.153489 -0.0183057 0)
(-0.151116 -0.0305207 0)
(-0.147374 -0.0423266 0)
(-0.142288 -0.0535083 0)
(-0.135905 -0.0638407 0)
(-0.128291 -0.0730903 0)
(-0.119536 -0.0810177 0)
(-0.109761 -0.0873822 0)
(-0.0991186 -0.0919482 0)
(-0.0877956 -0.0944929 0)
(-0.0760162 -0.0948162 0)
(-0.0640419 -0.0927521 0)
(-0.0521691 -0.0881803 0)
(-0.0407234 -0.0810386 0)
(-0.0300498 -0.071334 0)
(-0.0204964 -0.0591523 0)
(-0.0123885 -0.0446633 0)
(-0.00598528 -0.0281222 0)
(-0.0014369 -0.00986184 0)
(-0.00153511 0.0114407 0)
(-0.00633322 0.0320686 0)
(-0.0130087 0.0502788 0)
(-0.0213884 0.0658574 0)
(-0.0311984 0.0786722 0)
(-0.0421081 0.0886705 0)
(-0.0537739 0.0958704 0)
(-0.0658619 0.100351 0)
(-0.0780628 0.102239 0)
(-0.0900987 0.101697 0)
(-0.101726 0.0989159 0)
(-0.112738 0.094099 0)
(-0.122957 0.0874588 0)
(-0.132241 0.0792096 0)
(-0.140469 0.0695633 0)
(-0.147546 0.0587276 0)
(-0.153397 0.0469044 0)
(-0.157961 0.0342911 0)
(-0.16119 0.021082 0)
(-0.163048 0.00747057 0)
(-0.16351 -0.00634747 0)
(-0.162559 -0.0201713 0)
(-0.160188 -0.0337917 0)
(-0.156404 -0.0469892 0)
(-0.151223 -0.0595314 0)
(-0.144683 -0.071173 0)
(-0.13684 -0.0816561 0)
(-0.127775 -0.0907127 0)
(-0.1176 -0.098069 0)
(-0.106463 -0.103452 0)
(-0.0945496 -0.106599 0)
(-0.082088 -0.107267 0)
(-0.069351 -0.105246 0)
(-0.0566538 -0.100374 0)
(-0.0443489 -0.0925513 0)
(-0.0328157 -0.0817536 0)
(-0.0224426 -0.0680435 0)
(-0.0135986 -0.0515793 0)
(-0.00658421 -0.0326161 0)
(-0.00158235 -0.0115 0)
(-0.00166716 0.0131328 0)
(-0.00686969 0.0366483 0)
(-0.0140827 0.057254 0)
(-0.0231032 0.0747445 0)
(-0.0336208 0.0890082 0)
(-0.0452682 0.100022 0)
(-0.0576681 0.107842 0)
(-0.0704594 0.112588 0)
(-0.083312 0.114429 0)
(-0.0959347 0.113572 0)
(-0.108077 0.110248 0)
(-0.11953 0.104697 0)
(-0.130121 0.0971668 0)
(-0.139712 0.0878999 0)
(-0.148192 0.0771333 0)
(-0.155476 0.0650949 0)
(-0.161494 0.0520031 0)
(-0.166196 0.0380689 0)
(-0.16954 0.023497 0)
(-0.171494 0.00849018 0)
(-0.172034 -0.00674764 0)
(-0.171141 -0.0220071 0)
(-0.168806 -0.0370694 0)
(-0.165025 -0.0517029 0)
(-0.159808 -0.0656604 0)
(-0.153179 -0.0786773 0)
(-0.145182 -0.0904716 0)
(-0.135885 -0.100746 0)
(-0.125389 -0.109191 0)
(-0.113829 -0.115492 0)
(-0.101388 -0.119342 0)
(-0.0882938 -0.120447 0)
(-0.0748278 -0.118546 0)
(-0.061322 -0.113426 0)
(-0.0481555 -0.10494 0)
(-0.0357436 -0.0930222 0)
(-0.0245188 -0.0777043 0)
(-0.0148987 -0.0591262 0)
(-0.00723161 -0.0375396 0)
(-0.00174005 -0.0133024 0)
(-0.00180786 0.0149662 0)
(-0.00743941 0.0415919 0)
(-0.015216 0.064756 0)
(-0.0248992 0.0842651 0)
(-0.0361373 0.100034 0)
(-0.0485217 0.112078 0)
(-0.0616392 0.120496 0)
(-0.0751004 0.125461 0)
(-0.0885552 0.127192 0)
(-0.101701 0.125949 0)
(-0.114283 0.122006 0)
(-0.126094 0.115651 0)
(-0.136969 0.107165 0)
(-0.14678 0.0968246 0)
(-0.155428 0.084892 0)
(-0.16284 0.0716156 0)
(-0.168961 0.0572297 0)
(-0.173748 0.0419565 0)
(-0.17717 0.0260096 0)
(-0.179199 0.00959776 0)
(-0.179815 -0.00706969 0)
(-0.178999 -0.0237782 0)
(-0.176734 -0.0403025 0)
(-0.173012 -0.0564022 0)
(-0.167828 -0.0718174 0)
(-0.161194 -0.0862663 0)
(-0.153137 -0.0994438 0)
(-0.143708 -0.111022 0)
(-0.13299 -0.120656 0)
(-0.121106 -0.127986 0)
(-0.108225 -0.132652 0)
(-0.0945721 -0.134304 0)
(-0.0804326 -0.132619 0)
(-0.0661522 -0.127324 0)
(-0.0521356 -0.118211 0)
(-0.0388354 -0.105162 0)
(-0.0267312 -0.0881678 0)
(-0.0162955 -0.0673406 0)
(-0.00793216 -0.0429232 0)
(-0.0019113 -0.0152831 0)
(-0.00195841 0.0169505 0)
(-0.00804671 0.0469183 0)
(-0.0164151 0.0728049 0)
(-0.0267826 0.0944331 0)
(-0.0387497 0.111751 0)
(-0.051862 0.124822 0)
(-0.0656677 0.133801 0)
(-0.0797482 0.138921 0)
(-0.0937349 0.140464 0)
(-0.107316 0.138748 0)
(-0.120237 0.134104 0)
(-0.132297 0.126867 0)
(-0.143342 0.11736 0)
(-0.15326 0.105894 0)
(-0.161969 0.092757 0)
(-0.169412 0.0782183 0)
(-0.175549 0.0625265 0)
(-0.180353 0.0459131 0)
(-0.183802 0.0285974 0)
(-0.185879 0.0107912 0)
(-0.186564 -0.00729492 0)
(-0.18584 -0.0254449 0)
(-0.183686 -0.0434311 0)
(-0.180083 -0.0610081 0)
(-0.175015 -0.077907 0)
(-0.168477 -0.0938315 0)
(-0.160474 -0.108455 0)
(-0.151037 -0.121421 0)
(-0.140226 -0.132345 0)
(-0.128143 -0.14082 0)
(-0.114941 -0.146429 0)
(-0.100834 -0.148756 0)
(-0.0861038 -0.147407 0)
(-0.0711068 -0.142034 0)
(-0.0562707 -0.132355 0)
(-0.0420857 -0.118187 0)
(-0.0290825 -0.099463 0)
(-0.0177945 -0.0762588 0)
(-0.0086901 -0.048799 0)
(-0.00209736 -0.0174572 0)
(-0.00212027 0.0190962 0)
(-0.00869667 0.052648 0)
(-0.017687 0.0814207 0)
(-0.0287593 0.105259 0)
(-0.0414581 0.124155 0)
(-0.055278 0.13823 0)
(-0.0697256 0.147709 0)
(-0.0843533 0.152899 0)
(-0.0987757 0.154156 0)
(-0.112676 0.151868 0)
(-0.125804 0.146429 0)
(-0.137972 0.138228 0)
(-0.149044 0.127634 0)
(-0.158927 0.114994 0)
(-0.167561 0.100624 0)
(-0.174912 0.0848127 0)
(-0.180959 0.0678204 0)
(-0.185693 0.0498857 0)
(-0.189106 0.0312299 0)
(-0.19119 0.0120639 0)
(-0.191932 -0.00740466 0)
(-0.191315 -0.0269631 0)
(-0.189313 -0.0463862 0)
(-0.185899 -0.065428 0)
(-0.181042 -0.0838153 0)
(-0.174716 -0.101241 0)
(-0.166905 -0.117361 0)
(-0.157612 -0.131789 0)
(-0.146869 -0.144104 0)
(-0.134749 -0.153847 0)
(-0.12138 -0.160539 0)
(-0.106958 -0.163689 0)
(-0.0917542 -0.162821 0)
(-0.076129 -0.157497 0)
(-0.0605292 -0.147345 0)
(-0.0454817 -0.132095 0)
(-0.0315712 -0.111612 0)
(-0.0193992 -0.0859144 0)
(-0.00950928 -0.0551997 0)
(-0.00229944 -0.0198411 0)
(-0.0022952 0.0214154 0)
(-0.00939544 0.0588034 0)
(-0.0190403 0.0906234 0)
(-0.0308355 0.11675 0)
(-0.0442606 0.13723 0)
(-0.0587528 0.15226 0)
(-0.0737747 0.162152 0)
(-0.0888502 0.167301 0)
(-0.103581 0.168153 0)
(-0.117649 0.165175 0)
(-0.130818 0.158836 0)
(-0.142917 0.149584 0)
(-0.153836 0.137839 0)
(-0.163508 0.123985 0)
(-0.171903 0.108366 0)
(-0.179011 0.0912873 0)
(-0.184839 0.0730207 0)
(-0.189396 0.0538074 0)
(-0.192693 0.0338668 0)
(-0.194733 0.0134039 0)
(-0.195512 -0.00738136 0)
(-0.195012 -0.0282851 0)
(-0.193207 -0.04909 0)
(-0.190058 -0.0695554 0)
(-0.185518 -0.0894091 0)
(-0.179541 -0.108339 0)
(-0.172083 -0.125985 0)
(-0.163115 -0.141939 0)
(-0.152634 -0.155739 0)
(-0.140677 -0.166877 0)
(-0.127339 -0.174803 0)
(-0.112783 -0.178947 0)
(-0.0972653 -0.178734 0)
(-0.0811386 -0.17362 0)
(-0.0648632 -0.163124 0)
(-0.0490003 -0.14687 0)
(-0.0341907 -0.124625 0)
(-0.0211114 -0.0963371 0)
(-0.0103931 -0.0621582 0)
(-0.00251869 -0.0224524 0)
(-0.00248536 0.0239222 0)
(-0.0101506 0.0654095 0)
(-0.0204848 0.100432 0)
(-0.0330176 0.128905 0)
(-0.0471525 0.150948 0)
(-0.0622624 0.166852 0)
(-0.0777638 0.177035 0)
(-0.0931538 0.182002 0)
(-0.108026 0.182302 0)
(-0.122071 0.1785 0)
(-0.13507 0.171143 0)
(-0.146882 0.16075 0)
(-0.157429 0.147794 0)
(-0.16668 0.132695 0)
(-0.174637 0.115826 0)
(-0.181325 0.0975077 0)
(-0.186777 0.0780175 0)
(-0.19103 0.0575962 0)
(-0.194114 0.0364564 0)
(-0.196046 0.0147923 0)
(-0.196832 -0.00720984 0)
(-0.196458 -0.0293607 0)
(-0.194893 -0.0514572 0)
(-0.19209 -0.0732705 0)
(-0.187987 -0.0945359 0)
(-0.182512 -0.114942 0)
(-0.175592 -0.134121 0)
(-0.16716 -0.151644 0)
(-0.157173 -0.167015 0)
(-0.145624 -0.179671 0)
(-0.132559 -0.188995 0)
(-0.118104 -0.194323 0)
(-0.102481 -0.194971 0)
(-0.0860264 -0.19027 0)
(-0.0692047 -0.179605 0)
(-0.0526059 -0.162466 0)
(-0.0369278 -0.138498 0)
(-0.0229301 -0.107549 0)
(-0.0113443 -0.069706 0)
(-0.00275622 -0.0253095 0)
(-0.0026935 0.0266334 0)
(-0.0109715 0.0724935 0)
(-0.0220323 0.110865 0)
(-0.0353123 0.141717 0)
(-0.0501253 0.165265 0)
(-0.0657727 0.18192 0)
(-0.0816239 0.192232 0)
(-0.0971534 0.196838 0)
(-0.111954 0.196413 0)
(-0.125735 0.19163 0)
(-0.138307 0.18313 0)
(-0.149568 0.171504 0)
(-0.159481 0.157281 0)
(-0.168059 0.140922 0)
(-0.175347 0.122822 0)
(-0.181405 0.103315 0)
(-0.186302 0.0826804 0)
(-0.190102 0.0611536 0)
(-0.192858 0.0389349 0)
(-0.194605 0.0162018 0)
(-0.195359 -0.00687894 0)
(-0.195112 -0.0301393 0)
(-0.193831 -0.053397 0)
(-0.19146 -0.0764424 0)
(-0.18792 -0.0990259 0)
(-0.183116 -0.120844 0)
(-0.176941 -0.14153 0)
(-0.16929 -0.16064 0)
(-0.160068 -0.177647 0)
(-0.149214 -0.191942 0)
(-0.136721 -0.20283 0)
(-0.122657 -0.209552 0)
(-0.107197 -0.2113 0)
(-0.0906466 -0.20726 0)
(-0.0734593 -0.196655 0)
(-0.0562462 -0.178808 0)
(-0.0397603 -0.153207 0)
(-0.0248504 -0.119564 0)
(-0.0123647 -0.0778725 0)
(-0.00301298 -0.0284322 0)
(-0.00292296 0.0295688 0)
(-0.0118696 0.080086 0)
(-0.0236963 0.121937 0)
(-0.0377247 0.155167 0)
(-0.0531631 0.180115 0)
(-0.0692345 0.197345 0)
(-0.0852616 0.207575 0)
(-0.100704 0.2116 0)
(-0.115164 0.210244 0)
(-0.128383 0.204304 0)
(-0.140215 0.194525 0)
(-0.150609 0.181576 0)
(-0.159581 0.166043 0)
(-0.167197 0.148425 0)
(-0.173547 0.129139 0)
(-0.178739 0.108524 0)
(-0.182876 0.0868581 0)
(-0.186054 0.0643644 0)
(-0.188351 0.0412254 0)
(-0.189823 0.0175958 0)
(-0.190496 -0.00638342 0)
(-0.190371 -0.030572 0)
(-0.189414 -0.0548158 0)
(-0.187561 -0.0789322 0)
(-0.184719 -0.102695 0)
(-0.180767 -0.125818 0)
(-0.175565 -0.147944 0)
(-0.168964 -0.168622 0)
(-0.160816 -0.187307 0)
(-0.150997 -0.203341 0)
(-0.139429 -0.215961 0)
(-0.126111 -0.224302 0)
(-0.111153 -0.227423 0)
(-0.094806 -0.224341 0)
(-0.0774981 -0.214087 0)
(-0.0598466 -0.195777 0)
(-0.0426536 -0.168697 0)
(-0.0268624 -0.132379 0)
(-0.0134544 -0.0866831 0)
(-0.0032896 -0.0318409 0)
(-0.00317771 0.0327524 0)
(-0.0128581 0.0882209 0)
(-0.0254912 0.133658 0)
(-0.0402561 0.169216 0)
(-0.0562377 0.195398 0)
(-0.0725747 0.212967 0)
(-0.0885473 0.222844 0)
(-0.103611 0.226022 0)
(-0.117396 0.223495 0)
(-0.12969 0.216204 0)
(-0.140409 0.205005 0)
(-0.149566 0.190652 0)
(-0.157242 0.173783 0)
(-0.163564 0.154934 0)
(-0.168679 0.134534 0)
(-0.172739 0.112927 0)
(-0.17589 0.0903797 0)
(-0.178261 0.0670971 0)
(-0.179955 0.0432374 0)
(-0.181049 0.0189269 0)
(-0.181585 -0.00572605 0)
(-0.181569 -0.0306153 0)
(-0.18097 -0.0556219 0)
(-0.179719 -0.0805981 0)
(-0.177709 -0.10535 0)
(-0.174798 -0.12962 0)
(-0.170812 -0.153068 0)
(-0.165557 -0.175253 0)
(-0.158826 -0.195616 0)
(-0.150426 -0.213466 0)
(-0.140197 -0.227972 0)
(-0.128051 -0.238166 0)
(-0.11401 -0.242961 0)
(-0.0982503 -0.241185 0)
(-0.0811458 -0.231644 0)
(-0.0633005 -0.213199 0)
(-0.0455546 -0.184876 0)
(-0.0289472 -0.145971 0)
(-0.0146108 -0.096157 0)
(-0.00358617 -0.0355569 0)
(-0.00346228 0.0362134 0)
(-0.0139519 0.0969352 0)
(-0.0274295 0.146032 0)
(-0.042898 0.183804 0)
(-0.0592991 0.210976 0)
(-0.0756832 0.228567 0)
(-0.091298 0.237755 0)
(-0.105613 0.239767 0)
(-0.118309 0.235797 0)
(-0.129241 0.226947 0)
(-0.138407 0.214191 0)
(-0.145901 0.198365 0)
(-0.151882 0.180161 0)
(-0.156545 0.160139 0)
(-0.160098 0.138738 0)
(-0.162743 0.116294 0)
(-0.164667 0.0930567 0)
(-0.166032 0.0692055 0)
(-0.16697 0.0448684 0)
(-0.167576 0.0201364 0)
(-0.167907 -0.0049197 0)
(-0.167979 -0.0302342 0)
(-0.167765 -0.0557301 0)
(-0.167194 -0.0813019 0)
(-0.166148 -0.106797 0)
(-0.164466 -0.131997 0)
(-0.161945 -0.156592 0)
(-0.158346 -0.180164 0)
(-0.153404 -0.202156 0)
(-0.14685 -0.221856 0)
(-0.138433 -0.238377 0)
(-0.127959 -0.250653 0)
(-0.115339 -0.257446 0)
(-0.100643 -0.257376 0)
(-0.0841627 -0.248985 0)
(-0.0664569 -0.230829 0)
(-0.0483832 -0.201603 0)
(-0.0310727 -0.160291 0)
(-0.015826 -0.106304 0)
(-0.00390158 -0.0396021 0)
(-0.00378129 0.039987 0)
(-0.015165 0.106268 0)
(-0.0295171 0.159046 0)
(-0.0456227 0.198832 0)
(-0.062259 0.226652 0)
(-0.0783907 0.243855 0)
(-0.0932509 0.251939 0)
(-0.106351 0.252414 0)
(-0.11745 0.246702 0)
(-0.126503 0.236079 0)
(-0.133609 0.221642 0)
(-0.138961 0.204303 0)
(-0.142808 0.1848 0)
(-0.145419 0.163706 0)
(-0.147065 0.14146 0)
(-0.148 0.11838 0)
(-0.148451 0.094688 0)
(-0.148611 0.0705329 0)
(-0.148636 0.0460049 0)
(-0.14864 0.021155 0)
(-0.148695 -0.00398914 0)
(-0.148826 -0.0294069 0)
(-0.149014 -0.0550687 0)
(-0.149188 -0.0809179 0)
(-0.149225 -0.106852 0)
(-0.148952 -0.132701 0)
(-0.14814 -0.158202 0)
(-0.146511 -0.182972 0)
(-0.143746 -0.206476 0)
(-0.139497 -0.228001 0)
(-0.133415 -0.246622 0)
(-0.125185 -0.261186 0)
(-0.114584 -0.270307 0)
(-0.10154 -0.272385 0)
(-0.0862203 -0.265663 0)
(-0.069099 -0.24833 0)
(-0.0510176 -0.218669 0)
(-0.0331847 -0.175247 0)
(-0.0170837 -0.117118 0)
(-0.00423261 -0.0439981 0)
(-0.00413852 0.0441153 0)
(-0.0165071 0.116256 0)
(-0.0317438 0.172661 0)
(-0.048365 0.214147 0)
(-0.064965 0.242148 0)
(-0.0804344 0.258441 0)
(-0.0940235 0.264925 0)
(-0.105326 0.263442 0)
(-0.114218 0.255671 0)
(-0.120787 0.243071 0)
(-0.12526 0.226857 0)
(-0.127947 0.208008 0)
(-0.129192 0.18729 0)
(-0.129345 0.16528 0)
(-0.128738 0.142397 0)
(-0.127672 0.11893 0)
(-0.126411 0.0950682 0)
(-0.125174 0.0709181 0)
(-0.124136 0.0465278 0)
(-0.123429 0.0219039 0)
(-0.123135 -0.00297227 0)
(-0.123292 -0.0281286 0)
(-0.123886 -0.0535863 0)
(-0.124853 -0.0793432 0)
(-0.126072 -0.105354 0)
(-0.127364 -0.131506 0)
(-0.128484 -0.157596 0)
(-0.129126 -0.183295 0)
(-0.128922 -0.208112 0)
(-0.127453 -0.231356 0)
(-0.124268 -0.252091 0)
(-0.118922 -0.269101 0)
(-0.111031 -0.280865 0)
(-0.100348 -0.285561 0)
(-0.0868643 -0.281102 0)
(-0.0709139 -0.265249 0)
(-0.0532714 -0.235771 0)
(-0.035193 -0.190693 0)
(-0.0183515 -0.128572 0)
(-0.0045721 -0.0487656 0)
(-0.00453489 0.0486475 0)
(-0.0179756 0.126928 0)
(-0.0340648 0.186796 0)
(-0.0509919 0.229512 0)
(-0.0671565 0.25707 0)
(-0.0814044 0.271807 0)
(-0.0930543 0.276111 0)
(-0.101838 0.272211 0)
(-0.107799 0.262067 0)
(-0.111196 0.247317 0)
(-0.11241 0.229282 0)
(-0.111877 0.208989 0)
(-0.110046 0.187209 0)
(-0.107343 0.1645 0)
(-0.104156 0.141248 0)
(-0.100826 0.1177 0)
(-0.097641 0.093999 0)
(-0.0948402 0.0702045 0)
(-0.0926119 0.0463178 0)
(-0.0910964 0.0222984 0)
(-0.0903868 -0.00192012 0)
(-0.0905293 -0.026415 0)
(-0.091521 -0.05126 0)
(-0.0933069 -0.0765092 0)
(-0.095775 -0.102178 0)
(-0.09875 -0.128223 0)
(-0.101987 -0.154508 0)
(-0.105163 -0.180778 0)
(-0.107877 -0.20661 0)
(-0.10965 -0.231363 0)
(-0.109938 -0.254127 0)
(-0.108161 -0.273657 0)
(-0.10376 -0.28833 0)
(-0.0962734 -0.296111 0)
(-0.0854611 -0.294573 0)
(-0.0714447 -0.280983 0)
(-0.0548576 -0.252487 0)
(-0.0369483 -0.206404 0)
(-0.0195703 -0.140605 0)
(-0.00490578 -0.0539218 0)