/*--------------------------------*- C++ -*----------------------------------*\
| =========                 |                                                 |
| \\      /  F ield         | OpenFOAM: The Open Source CFD Toolbox           |
|  \\    /   O peration     | Version:  4.1                                   |
|   \\  /    A nd           | Web:      www.OpenFOAM.org                      |
|    \\/     M anipulation  |                                                 |
\*---------------------------------------------------------------------------*/
FoamFile
{
    version     2.0;
    format      ascii;
    class       volVectorField;
    location    "0.1935";
    object      U;
}
// * * * * * * * * * * * * * * * * * * * * * * * * * * * * * * * * * * * * * //

dimensions      [0 1 -1 0 0 0 0];

internalField   nonuniform List<vector> 
6400
(
(8.03383e-06 -7.99885e-06 0)
(3.03266e-05 -1.16538e-05 0)
(4.8598e-05 -8.10132e-06 0)
(5.6668e-05 1.19696e-06 0)
(5.03014e-05 1.42265e-05 0)
(2.7006e-05 2.94114e-05 0)
(-1.44471e-05 4.5604e-05 0)
(-7.43676e-05 6.19902e-05 0)
(-0.000152415 7.79984e-05 0)
(-0.000247793 9.32315e-05 0)
(-0.000359392 0.000107417 0)
(-0.000485891 0.000120374 0)
(-0.000625831 0.000131984 0)
(-0.000777667 0.000142179 0)
(-0.000939811 0.000150921 0)
(-0.00111066 0.000158202 0)
(-0.0012886 0.00016403 0)
(-0.00147207 0.000168427 0)
(-0.0016595 0.000171426 0)
(-0.00184941 0.000173068 0)
(-0.00204032 0.000173398 0)
(-0.00223083 0.000172468 0)
(-0.00241959 0.00017033 0)
(-0.00260532 0.00016704 0)
(-0.00278679 0.000162656 0)
(-0.00296283 0.000157237 0)
(-0.00313235 0.000150842 0)
(-0.00329432 0.000143531 0)
(-0.00344777 0.000135366 0)
(-0.0035918 0.000126408 0)
(-0.00372557 0.000116718 0)
(-0.00384833 0.00010636 0)
(-0.00395937 9.53954e-05 0)
(-0.00405807 8.38883e-05 0)
(-0.00414388 7.19028e-05 0)
(-0.00421631 5.95038e-05 0)
(-0.00427493 4.67571e-05 0)
(-0.00431941 3.37294e-05 0)
(-0.00434949 2.04884e-05 0)
(-0.00436495 7.10307e-06 0)
(-0.00436569 -6.35666e-06 0)
(-0.00435167 -1.98196e-05 0)
(-0.00432291 -3.32133e-05 0)
(-0.00427953 -4.64642e-05 0)
(-0.00422174 -5.94978e-05 0)
(-0.0041498 -7.22383e-05 0)
(-0.00406409 -8.46093e-05 0)
(-0.00396503 -9.65334e-05 0)
(-0.00385317 -0.000107933 0)
(-0.00372912 -0.00011873 0)
(-0.00359358 -0.000128846 0)
(-0.00344733 -0.000138204 0)
(-0.00329123 -0.000146727 0)
(-0.00312625 -0.000154339 0)
(-0.0029534 -0.000160966 0)
(-0.00277382 -0.000166536 0)
(-0.00258867 -0.00017098 0)
(-0.00239924 -0.000174232 0)
(-0.00220685 -0.000176229 0)
(-0.0020129 -0.000176914 0)
(-0.00181885 -0.000176236 0)
(-0.00162621 -0.000174149 0)
(-0.00143655 -0.000170617 0)
(-0.00125145 -0.000165612 0)
(-0.00107254 -0.000159117 0)
(-0.000901454 -0.00015113 0)
(-0.000739823 -0.000141665 0)
(-0.000589261 -0.000130759 0)
(-0.000451333 -0.000118476 0)
(-0.000327529 -0.000104915 0)
(-0.000219219 -9.02265e-05 0)
(-0.000127605 -7.46226e-05 0)
(-5.36412e-05 -5.84057e-05 0)
(2.06105e-06 -4.19992e-05 0)
(3.93717e-05 -2.59949e-05 0)
(5.8828e-05 -1.12162e-05 0)
(6.1888e-05 1.19795e-06 0)
(5.12493e-05 9.7126e-06 0)
(3.12826e-05 1.24177e-05 0)
(8.16868e-06 8.10212e-06 0)
(1.18174e-05 -3.02662e-05 0)
(4.56267e-05 -4.51448e-05 0)
(6.5396e-05 -2.70217e-05 0)
(5.68263e-05 1.37719e-05 0)
(9.86172e-06 6.90166e-05 0)
(-8.16331e-05 0.000132585 0)
(-0.000220875 0.000200011 0)
(-0.000408859 0.000268093 0)
(-0.000644937 0.000334555 0)
(-0.000927252 0.000397796 0)
(-0.00125308 0.000456708 0)
(-0.00161906 0.000510541 0)
(-0.00202144 0.000558805 0)
(-0.00245616 0.0006012 0)
(-0.00291899 0.000637571 0)
(-0.0034056 0.000667864 0)
(-0.00391167 0.000692106 0)
(-0.00443286 0.000710381 0)
(-0.00496492 0.000722817 0)
(-0.00550368 0.000729578 0)
(-0.0060451 0.000730848 0)
(-0.00658524 0.000726834 0)
(-0.00712034 0.000717756 0)
(-0.00764677 0.000703844 0)
(-0.00816109 0.000685335 0)
(-0.00866001 0.000662475 0)
(-0.00914042 0.000635512 0)
(-0.00959941 0.000604698 0)
(-0.0100342 0.000570289 0)
(-0.0104423 0.000532543 0)
(-0.0108213 0.000491718 0)
(-0.0111691 0.000448079 0)
(-0.0114836 0.00040189 0)
(-0.0117632 0.000353417 0)
(-0.0120061 0.000302932 0)
(-0.012211 0.000250709 0)
(-0.0123769 0.000197024 0)
(-0.0125026 0.00014216 0)
(-0.0125874 8.64017e-05 0)
(-0.0126308 3.00398e-05 0)
(-0.0126325 -2.66308e-05 0)
(-0.0125923 -8.33099e-05 0)
(-0.0125104 -0.000139693 0)
(-0.0123871 -0.00019547 0)
(-0.0122229 -0.000250328 0)
(-0.0120188 -0.000303949 0)
(-0.0117756 -0.00035601 0)
(-0.0114947 -0.000406187 0)
(-0.0111777 -0.000454156 0)
(-0.0108262 -0.000499587 0)
(-0.0104422 -0.000542156 0)
(-0.010028 -0.000581536 0)
(-0.00958597 -0.000617407 0)
(-0.00911888 -0.000649452 0)
(-0.00862962 -0.000677362 0)
(-0.00812131 -0.000700837 0)
(-0.0075973 -0.000719589 0)
(-0.00706114 -0.000733344 0)
(-0.00651656 -0.000741845 0)
(-0.00596746 -0.000744856 0)
(-0.0054179 -0.000742164 0)
(-0.00487209 -0.000733587 0)
(-0.00433433 -0.000718973 0)
(-0.00380901 -0.000698214 0)
(-0.00330058 -0.000671247 0)
(-0.00281349 -0.00063807 0)
(-0.00235217 -0.00059875 0)
(-0.00192094 -0.000553448 0)
(-0.00152396 -0.000502436 0)
(-0.00116515 -0.000446136 0)
(-0.000848044 -0.000385165 0)
(-0.000575685 -0.000320401 0)
(-0.000350405 -0.000253073 0)
(-0.000173597 -0.000184884 0)
(-4.53918e-05 -0.000118188 0)
(3.57617e-05 -5.62247e-05 0)
(7.36274e-05 -3.41894e-06 0)
(7.48234e-05 3.42618e-05 0)
(4.97255e-05 4.89727e-05 0)
(1.26786e-05 3.11457e-05 0)
(8.46563e-06 -4.87142e-05 0)
(2.82914e-05 -6.49781e-05 0)
(2.11496e-05 -1.9392e-05 0)
(-3.14075e-05 6.84327e-05 0)
(-0.000142822 0.000183396 0)
(-0.000321549 0.00031416 0)
(-0.000572191 0.000452328 0)
(-0.000896298 0.000591749 0)
(-0.00129308 0.000727958 0)
(-0.00175995 0.000857752 0)
(-0.00229302 0.000978861 0)
(-0.00288738 0.00108971 0)
(-0.00353746 0.00118924 0)
(-0.00423716 0.00127678 0)
(-0.0049801 0.00135196 0)
(-0.00575968 0.00141462 0)
(-0.00656924 0.00146476 0)
(-0.0074021 0.00150252 0)
(-0.00825165 0.00152814 0)
(-0.00911139 0.00154191 0)
(-0.00997498 0.00154422 0)
(-0.0108363 0.00153545 0)
(-0.0116893 0.00151607 0)
(-0.0125283 0.00148653 0)
(-0.013348 0.00144733 0)
(-0.014143 0.00139896 0)
(-0.0149084 0.00134195 0)
(-0.0156397 0.00127682 0)
(-0.0163324 0.00120411 0)
(-0.0169824 0.00112436 0)
(-0.0175861 0.0010381 0)
(-0.0181399 0.000945909 0)
(-0.0186408 0.000848331 0)
(-0.0190858 0.000745934 0)
(-0.0194725 0.000639292 0)
(-0.0197986 0.000528984 0)
(-0.0200623 0.000415598 0)
(-0.0202621 0.000299731 0)
(-0.0203968 0.000181988 0)
(-0.0204654 6.2984e-05 0)
(-0.0204676 -5.66565e-05 0)
(-0.0204031 -0.000176299 0)
(-0.0202721 -0.000295299 0)
(-0.0200752 -0.000413002 0)
(-0.0198133 -0.000528747 0)
(-0.0194878 -0.000641863 0)
(-0.0191002 -0.000751672 0)
(-0.0186526 -0.000857493 0)
(-0.0181475 -0.00095864 0)
(-0.0175876 -0.00105443 0)
(-0.0169761 -0.00114417 0)
(-0.0163165 -0.00122719 0)
(-0.0156128 -0.00130282 0)
(-0.0148692 -0.00137039 0)
(-0.0140903 -0.00142927 0)
(-0.0132811 -0.00147882 0)
(-0.0124469 -0.00151847 0)
(-0.0115933 -0.00154764 0)
(-0.0107261 -0.00156581 0)
(-0.00985151 -0.00157249 0)
(-0.00897585 -0.00156727 0)
(-0.0081057 -0.00154977 0)
(-0.00724777 -0.00151971 0)
(-0.00640891 -0.00147689 0)
(-0.005596 -0.00142121 0)
(-0.00481589 -0.00135269 0)
(-0.00407537 -0.00127153 0)
(-0.00338105 -0.00117809 0)
(-0.00273921 -0.00107298 0)
(-0.00215573 -0.000957122 0)
(-0.00163585 -0.000831825 0)
(-0.00118402 -0.000698911 0)
(-0.000803569 -0.000560887 0)
(-0.000496412 -0.000421159 0)
(-0.000262597 -0.00028434 0)
(-9.97893e-05 -0.000156645 0)
(-2.61719e-06 -4.64042e-05 0)
(3.8056e-05 3.53249e-05 0)
(3.61471e-05 7.4049e-05 0)
(1.02668e-05 5.12816e-05 0)
(-5.64107e-07 -5.72953e-05 0)
(-1.14355e-05 -5.71241e-05 0)
(-6.48271e-05 3.2891e-05 0)
(-0.000180871 0.000184892 0)
(-0.00037455 0.000377196 0)
(-0.000655403 0.000593221 0)
(-0.00102867 0.000820422 0)
(-0.00149609 0.00104941 0)
(-0.00205664 0.0012732 0)
(-0.0027071 0.00148671 0)
(-0.00344263 0.00168621 0)
(-0.00425709 0.00186908 0)
(-0.0051434 0.0020335 0)
(-0.00609383 0.0021783 0)
(-0.00710017 0.00230274 0)
(-0.00815392 0.0024065 0)
(-0.00924644 0.0024895 0)
(-0.010369 0.00255191 0)
(-0.011513 0.00259406 0)
(-0.0126699 0.00261641 0)
(-0.0138313 0.00261953 0)
(-0.0149891 0.00260407 0)
(-0.0161354 0.00257074 0)
(-0.0172626 0.0025203 0)
(-0.0183634 0.00245357 0)
(-0.019431 0.00237137 0)
(-0.0204587 0.00227455 0)
(-0.0214404 0.00216401 0)
(-0.0223702 0.00204064 0)
(-0.0232426 0.00190534 0)
(-0.0240527 0.00175904 0)
(-0.0247959 0.00160267 0)
(-0.0254678 0.00143719 0)
(-0.0260647 0.00126355 0)
(-0.0265832 0.00108272 0)
(-0.0270205 0.000895692 0)
(-0.0273739 0.000703463 0)
(-0.0276415 0.000507045 0)
(-0.0278217 0.000307468 0)
(-0.0279132 0.000105777 0)
(-0.0279156 -9.69674e-05 0)
(-0.0278284 -0.000299688 0)
(-0.0276522 -0.000501292 0)
(-0.0273875 -0.000700671 0)
(-0.0270356 -0.000896704 0)
(-0.0265984 -0.00108826 0)
(-0.026078 -0.00127418 0)
(-0.0254773 -0.00145334 0)
(-0.0247993 -0.00162456 0)
(-0.024048 -0.00178669 0)
(-0.0232275 -0.0019386 0)
(-0.0223426 -0.00207912 0)
(-0.0213985 -0.00220715 0)
(-0.0204009 -0.00232157 0)
(-0.0193559 -0.00242133 0)
(-0.0182702 -0.00250538 0)
(-0.0171508 -0.00257274 0)
(-0.0160051 -0.00262248 0)
(-0.0148409 -0.00265373 0)
(-0.0136663 -0.00266573 0)
(-0.0124896 -0.00265778 0)
(-0.0113197 -0.00262931 0)
(-0.0101652 -0.00257987 0)
(-0.00903516 -0.00250917 0)
(-0.00793854 -0.0024171 0)
(-0.00688428 -0.00230377 0)
(-0.00588118 -0.00216955 0)
(-0.00493773 -0.00201513 0)
(-0.00406203 -0.00184159 0)
(-0.00326154 -0.00165053 0)
(-0.00254293 -0.00144415 0)
(-0.00191176 -0.00122549 0)
(-0.00137221 -0.000998606 0)
(-0.000926656 -0.000768944 0)
(-0.000575226 -0.000543702 0)
(-0.000315219 -0.000332377 0)
(-0.000140447 -0.00014743 0)
(-4.05144e-05 -5.08248e-06 0)
(2.08719e-07 7.3748e-05 0)
(2.19212e-06 6.25244e-05 0)
(-1.33279e-05 -5.18476e-05 0)
(-6.56478e-05 -1.16089e-05 0)
(-0.000178137 0.000143261 0)
(-0.000371158 0.000378221 0)
(-0.000659933 0.000665818 0)
(-0.00105407 0.000984591 0)
(-0.00155874 0.00131796 0)
(-0.00217541 0.00165323 0)
(-0.0029026 0.00198079 0)
(-0.00373642 0.00229345 0)
(-0.00467111 0.00258588 0)
(-0.00569946 0.00285421 0)
(-0.00681314 0.00309572 0)
(-0.00800297 0.00330857 0)
(-0.00925923 0.00349159 0)
(-0.0105718 0.00364419 0)
(-0.0119303 0.00376615 0)
(-0.0133243 0.00385765 0)
(-0.0147434 0.00391907 0)
(-0.0161772 0.00395105 0)
(-0.0176156 0.00395437 0)
(-0.0190488 0.00392994 0)
(-0.0204671 0.00387879 0)
(-0.0218613 0.00380203 0)
(-0.0232225 0.00370083 0)
(-0.0245422 0.00357641 0)
(-0.0258124 0.00343004 0)
(-0.0270254 0.00326304 0)
(-0.0281741 0.00307673 0)
(-0.0292518 0.00287248 0)
(-0.0302523 0.00265167 0)
(-0.03117 0.00241571 0)
(-0.0319996 0.00216602 0)
(-0.0327364 0.00190405 0)
(-0.0333764 0.00163127 0)
(-0.0339159 0.00134916 0)
(-0.0343519 0.00105924 0)
(-0.0346818 0.000763027 0)
(-0.0349037 0.000462085 0)
(-0.0350162 0.000157988 0)
(-0.0350186 -0.00014766 0)
(-0.0349105 -0.000453237 0)
(-0.0346923 -0.000757093 0)
(-0.034365 -0.00105756 0)
(-0.0339302 -0.00135295 0)
(-0.03339 -0.00164156 0)
(-0.0327472 -0.00192166 0)
(-0.0320052 -0.00219154 0)
(-0.031168 -0.00244945 0)
(-0.0302402 -0.00269368 0)
(-0.029227 -0.0029225 0)
(-0.0281343 -0.00313421 0)
(-0.0269685 -0.00332714 0)
(-0.0257365 -0.00349965 0)
(-0.024446 -0.00365016 0)
(-0.0231048 -0.00377712 0)
(-0.0217218 -0.0038791 0)
(-0.0203058 -0.00395472 0)
(-0.0188664 -0.00400274 0)
(-0.0174135 -0.00402202 0)
(-0.0159572 -0.00401159 0)
(-0.0145081 -0.00397063 0)
(-0.0130768 -0.00389853 0)
(-0.0116741 -0.00379493 0)
(-0.0103109 -0.00365973 0)
(-0.00899782 -0.00349318 0)
(-0.00774543 -0.00329591 0)
(-0.00656388 -0.00306902 0)
(-0.00546277 -0.0028142 0)
(-0.00445096 -0.00253388 0)
(-0.0035363 -0.00223134 0)
(-0.00272539 -0.00191102 0)
(-0.0020232 -0.00157876 0)
(-0.00143267 -0.00124221 0)
(-0.000954267 -0.000911337 0)
(-0.000585403 -0.00059898 0)
(-0.000319803 -0.000321661 0)
(-0.000146827 -0.000100441 0)
(-5.04163e-05 3.8058e-05 0)
(-9.6695e-06 6.06844e-05 0)
(-2.83554e-05 -2.9841e-05 0)
(-0.000128665 7.79263e-05 0)
(-0.00030839 0.000320656 0)
(-0.00058731 0.000658734 0)
(-0.000980011 0.00105994 0)
(-0.00149539 0.00149853 0)
(-0.00213794 0.0019542 0)
(-0.00290842 0.0024111 0)
(-0.00380461 0.002857 0)
(-0.0048218 0.00328254 0)
(-0.0059533 0.00368069 0)
(-0.00719086 0.00404624 0)
(-0.00852498 0.00437543 0)
(-0.00994526 0.00466565 0)
(-0.0114406 0.00491523 0)
(-0.0129995 0.0051232 0)
(-0.01461 0.0052892 0)
(-0.0162602 0.00541332 0)
(-0.0179382 0.00549603 0)
(-0.019632 0.0055381 0)
(-0.0213299 0.00554055 0)
(-0.0230206 0.00550456 0)
(-0.0246928 0.00543152 0)
(-0.0263358 0.00532291 0)
(-0.0279394 0.00518031 0)
(-0.0294936 0.00500541 0)
(-0.030989 0.00479994 0)
(-0.0324168 0.00456571 0)
(-0.0337686 0.00430455 0)
(-0.0350367 0.00401837 0)
(-0.0362137 0.00370908 0)
(-0.037293 0.00337865 0)
(-0.0382685 0.00302906 0)
(-0.0391349 0.00266233 0)
(-0.0398873 0.00228051 0)
(-0.0405214 0.00188569 0)
(-0.0410336 0.00147998 0)
(-0.0414211 0.00106551 0)
(-0.0416816 0.000644469 0)
(-0.0418135 0.000219061 0)
(-0.0418157 -0.000208475 0)
(-0.0416882 -0.000635865 0)
(-0.0414313 -0.00106081 0)
(-0.0410461 -0.00148097 0)
(-0.0405345 -0.001894 0)
(-0.039899 -0.00229751 0)
(-0.039143 -0.00268912 0)
(-0.0382703 -0.00306642 0)
(-0.0372857 -0.003427 0)
(-0.0361946 -0.00376847 0)
(-0.0350031 -0.00408843 0)
(-0.0337179 -0.00438454 0)
(-0.0323466 -0.00465449 0)
(-0.0308973 -0.004896 0)
(-0.0293788 -0.0051069 0)
(-0.0278004 -0.00528509 0)
(-0.0261721 -0.00542859 0)
(-0.0245045 -0.00553552 0)
(-0.0228085 -0.0056042 0)
(-0.0210956 -0.0056331 0)
(-0.0193776 -0.00562093 0)
(-0.0176666 -0.00556661 0)
(-0.0159748 -0.00546938 0)
(-0.0143147 -0.0053288 0)
(-0.0126988 -0.00514484 0)
(-0.0111393 -0.00491791 0)
(-0.00964822 -0.00464897 0)
(-0.00823721 -0.00433966 0)
(-0.00691719 -0.00399236 0)
(-0.00569826 -0.00361043 0)
(-0.0045894 -0.0031984 0)
(-0.00359819 -0.00276222 0)
(-0.00273046 -0.00230963 0)
(-0.00198988 -0.00185059 0)
(-0.00137755 -0.00139781 0)
(-0.00089145 -0.000967377 0)
(-0.000525839 -0.000579604 0)
(-0.000270602 -0.000259849 0)
(-0.000110118 -3.95095e-05 0)
(-2.38654e-05 4.31648e-05 0)
(-4.46226e-05 1.01266e-05 0)
(-0.00019654 0.000215284 0)
(-0.000448265 0.000570723 0)
(-0.000818587 0.0010332 0)
(-0.0013209 0.00156673 0)
(-0.00196286 0.002142 0)
(-0.00274775 0.00273542 0)
(-0.00367527 0.00332823 0)
(-0.00474216 0.00390571 0)
(-0.0059427 0.00445639 0)
(-0.00726919 0.00497151 0)
(-0.0087123 0.00544446 0)
(-0.0102614 0.0058704 0)
(-0.011905 0.00624591 0)
(-0.0136308 0.00656869 0)
(-0.0154258 0.0068374 0)
(-0.0172769 0.00705145 0)
(-0.0191709 0.00721084 0)
(-0.0210943 0.00731608 0)
(-0.0230339 0.00736809 0)
(-0.0249766 0.00736811 0)
(-0.0269096 0.00731765 0)
(-0.0288203 0.00721842 0)
(-0.0306968 0.00707235 0)
(-0.0325273 0.00688147 0)
(-0.0343009 0.00664797 0)
(-0.0360068 0.0063741 0)
(-0.0376351 0.00606222 0)
(-0.0391764 0.00571475 0)
(-0.0406218 0.00533418 0)
(-0.0419632 0.00492305 0)
(-0.0431931 0.00448394 0)
(-0.0443045 0.00401948 0)
(-0.0452914 0.00353234 0)
(-0.0461483 0.00302525 0)
(-0.0468703 0.00250096 0)
(-0.0474536 0.00196227 0)
(-0.0478946 0.00141203 0)
(-0.048191 0.000853123 0)
(-0.0483409 0.000288472 0)
(-0.0483432 -0.000278947 0)
(-0.0481976 -0.000846125 0)
(-0.0479048 -0.00141001 0)
(-0.0474659 -0.00196752 0)
(-0.0468831 -0.00251553 0)
(-0.0461592 -0.00305091 0)
(-0.0452981 -0.00357048 0)
(-0.044304 -0.00407109 0)
(-0.0431825 -0.00454955 0)
(-0.0419395 -0.0050027 0)
(-0.040582 -0.00542742 0)
(-0.0391177 -0.0058206 0)
(-0.0375549 -0.00617922 0)
(-0.0359029 -0.00650031 0)
(-0.0341716 -0.00678101 0)
(-0.0323714 -0.0070186 0)
(-0.0305137 -0.00721049 0)
(-0.0286103 -0.00735428 0)
(-0.0266734 -0.00744776 0)
(-0.0247159 -0.00748901 0)
(-0.022751 -0.00747636 0)
(-0.0207923 -0.00740849 0)
(-0.0188535 -0.00728448 0)
(-0.0169484 -0.00710382 0)
(-0.015091 -0.00686656 0)
(-0.013295 -0.00657334 0)
(-0.0115737 -0.00622551 0)
(-0.00993993 -0.00582528 0)
(-0.008406 -0.00537582 0)
(-0.00698314 -0.00488152 0)
(-0.00568141 -0.00434821 0)
(-0.00450942 -0.00378344 0)
(-0.00347396 -0.00319687 0)
(-0.00257965 -0.00260074 0)
(-0.0018285 -0.00201042 0)
(-0.00121946 -0.00144504 0)
(-0.000747813 -0.000928275 0)
(-0.000404522 -0.000489162 0)
(-0.00017495 -0.000162917 0)
(-3.93701e-05 8.48986e-06 0)
(-6.14451e-05 6.86841e-05 0)
(-0.000266611 0.000402436 0)
(-0.000592728 0.000896657 0)
(-0.00105745 0.00150566 0)
(-0.00167268 0.00219066 0)
(-0.00244443 0.00291943 0)
(-0.00337445 0.0036656 0)
(-0.00446103 0.00440783 0)
(-0.00569962 0.00512912 0)
(-0.0070833 0.00581601 0)
(-0.00860323 0.00645806 0)
(-0.010249 0.00704729 0)
(-0.0120088 0.00757775 0)
(-0.01387 0.00804516 0)
(-0.0158191 0.00844661 0)
(-0.017842 0.00878032 0)
(-0.0199245 0.00904544 0)
(-0.0220519 0.00924188 0)
(-0.0242097 0.00937017 0)
(-0.0263833 0.00943137 0)
(-0.0285584 0.00942694 0)
(-0.030721 0.00935873 0)
(-0.0328573 0.00922883 0)
(-0.034954 0.00903961 0)
(-0.0369986 0.00879359 0)
(-0.0389786 0.00849351 0)
(-0.0408824 0.00814219 0)
(-0.0426991 0.00774261 0)
(-0.0444181 0.00729781 0)
(-0.0460299 0.00681093 0)
(-0.0475253 0.0062852 0)
(-0.0488962 0.00572389 0)
(-0.0501348 0.00513035 0)
(-0.0512345 0.00450798 0)
(-0.0521891 0.00386024 0)
(-0.0529934 0.00319063 0)
(-0.0536431 0.00250274 0)
(-0.0541343 0.00180017 0)
(-0.0544644 0.00108662 0)
(-0.0546312 0.000365808 0)
(-0.0546337 -0.00035848 0)
(-0.0544716 -0.00108241 0)
(-0.0541455 -0.0018021 0)
(-0.0536567 -0.00251362 0)
(-0.0530076 -0.00321302 0)
(-0.0522014 -0.00389629 0)
(-0.0512423 -0.00455942 0)
(-0.050135 -0.0051984 0)
(-0.0488857 -0.00580919 0)
(-0.0475008 -0.0063878 0)
(-0.0459882 -0.00693026 0)
(-0.0443561 -0.00743267 0)
(-0.042614 -0.00789118 0)
(-0.0407719 -0.00830208 0)
(-0.0388406 -0.00866177 0)
(-0.0368319 -0.00896682 0)
(-0.034758 -0.009214 0)
(-0.032632 -0.0094003 0)
(-0.0304672 -0.00952301 0)
(-0.0282779 -0.00957972 0)
(-0.0260785 -0.0095684 0)
(-0.0238839 -0.00948746 0)
(-0.021709 -0.00933579 0)
(-0.019569 -0.00911287 0)
(-0.0174792 -0.00881883 0)
(-0.0154545 -0.00845456 0)
(-0.0135095 -0.00802184 0)
(-0.0116583 -0.00752349 0)
(-0.00991434 -0.00696353 0)
(-0.00828998 -0.00634742 0)
(-0.00679642 -0.00568231 0)
(-0.00544336 -0.00497736 0)
(-0.0042387 -0.00424413 0)
(-0.00318818 -0.00349705 0)
(-0.00229502 -0.00275396 0)
(-0.00155945 -0.00203674 0)
(-0.000978145 -0.001372 0)
(-0.000543515 -0.000791799 0)
(-0.000242225 -0.000334298 0)
(-5.54919e-05 -4.4039e-05 0)
(-7.83797e-05 0.000145956 0)
(-0.000337135 0.000640096 0)
(-0.000738414 0.0012999 0)
(-0.00129875 0.00207819 0)
(-0.00202842 0.00293415 0)
(-0.00293156 0.00383331 0)
(-0.00400814 0.00474699 0)
(-0.00525477 0.00565166 0)
(-0.00666541 0.00652827 0)
(-0.00823177 0.00736156 0)
(-0.00994372 0.00813951 0)
(-0.0117896 0.00885282 0)
(-0.0137566 0.00949447 0)
(-0.0158308 0.0100593 0)
(-0.0179976 0.0105439 0)
(-0.0202418 0.0109459 0)
(-0.022548 0.0112642 0)
(-0.0249005 0.0114987 0)
(-0.0272835 0.0116499 0)
(-0.0296813 0.011719 0)
(-0.0320786 0.0117076 0)
(-0.0344601 0.0116181 0)
(-0.0368111 0.0114528 0)
(-0.0391172 0.0112146 0)
(-0.0413647 0.0109066 0)
(-0.0435403 0.0105321 0)
(-0.0456313 0.0100945 0)
(-0.0476259 0.00959751 0)
(-0.0495128 0.00904477 0)
(-0.0512814 0.00844017 0)
(-0.0529221 0.00778767 0)
(-0.0544257 0.0070913 0)
(-0.0557841 0.00635519 0)
(-0.0569899 0.00558352 0)
(-0.0580366 0.00478057 0)
(-0.0589185 0.00395067 0)
(-0.0596307 0.00309824 0)
(-0.0601693 0.00222774 0)
(-0.0605313 0.00134372 0)
(-0.0607144 0.000450792 0)
(-0.0607174 -0.000446382 0)
(-0.0605401 -0.00134307 0)
(-0.060183 -0.00223447 0)
(-0.0596478 -0.00311575 0)
(-0.0589368 -0.00398202 0)
(-0.0580537 -0.00482836 0)
(-0.0570028 -0.00564983 0)
(-0.0557895 -0.00644148 0)
(-0.0544203 -0.00719837 0)
(-0.0529022 -0.00791557 0)
(-0.0512437 -0.00858822 0)
(-0.0494539 -0.00921152 0)
(-0.0475427 -0.00978079 0)
(-0.0455212 -0.0102915 0)
(-0.0434011 -0.0107391 0)
(-0.0411949 -0.0111196 0)
(-0.0389161 -0.0114291 0)
(-0.0365785 -0.0116637 0)
(-0.0341968 -0.0118203 0)
(-0.0317863 -0.011896 0)
(-0.0293624 -0.0118883 0)
(-0.0269414 -0.0117954 0)
(-0.0245393 -0.011616 0)
(-0.0221725 -0.0113495 0)
(-0.0198574 -0.0109961 0)
(-0.0176102 -0.010557 0)
(-0.0154467 -0.0100345 0)
(-0.0133822 -0.00943188 0)
(-0.0114312 -0.00875418 0)
(-0.00960719 -0.00800787 0)
(-0.00792267 -0.00720143 0)
(-0.00638848 -0.00634557 0)
(-0.00501376 -0.00545368 0)
(-0.00380557 -0.00454223 0)
(-0.00276855 -0.00363133 0)
(-0.00190447 -0.00274526 0)
(-0.00121165 -0.00191313 0)
(-0.000684183 -0.00116944 0)
(-0.000310176 -0.000554526 0)
(-7.17795e-05 -0.000114609 0)
(-9.51503e-05 0.000241753 0)
(-0.000407018 0.000928146 0)
(-0.000883158 0.00178068 0)
(-0.0015391 0.0027514 0)
(-0.00238345 0.00379812 0)
(-0.00341838 0.00488468 0)
(-0.00464189 0.00598056 0)
(-0.00604876 0.0070604 0)
(-0.00763125 0.00810337 0)
(-0.00937955 0.00909261 0)
(-0.0112821 0.0100147 0)
(-0.0133261 0.0108591 0)
(-0.0154972 0.0116177 0)
(-0.0177806 0.0122847 0)
(-0.0201605 0.0128559 0)
(-0.0226206 0.0133287 0)
(-0.0251444 0.0137017 0)
(-0.027715 0.0139745 0)
(-0.0303157 0.0141478 0)
(-0.0329298 0.0142229 0)
(-0.0355407 0.0142018 0)
(-0.0381324 0.014087 0)
(-0.040689 0.0138814 0)
(-0.0431953 0.0135884 0)
(-0.0456364 0.0132116 0)
(-0.0479984 0.0127549 0)
(-0.0502676 0.0122224 0)
(-0.0524314 0.0116185 0)
(-0.0544776 0.0109476 0)
(-0.0563952 0.0102143 0)
(-0.0581735 0.00942336 0)
(-0.059803 0.00857966 0)
(-0.0612749 0.00768814 0)
(-0.0625814 0.00675383 0)
(-0.0637153 0.00578188 0)
(-0.0646707 0.00477752 0)
(-0.0654423 0.00374605 0)
(-0.066026 0.00269286 0)
(-0.0664184 0.00162343 0)
(-0.0666173 0.000543302 0)
(-0.0666213 -0.00054189 0)
(-0.0664301 -0.00162645 0)
(-0.0660443 -0.00270461 0)
(-0.0654657 -0.00377054 0)
(-0.0646968 -0.00481837 0)
(-0.0637415 -0.00584219 0)
(-0.0626045 -0.00683605 0)
(-0.0612914 -0.00779401 0)
(-0.0598092 -0.00871013 0)
(-0.0581655 -0.00957851 0)
(-0.0563692 -0.0103933 0)
(-0.05443 -0.0111488 0)
(-0.0523587 -0.0118394 0)
(-0.0501669 -0.0124595 0)
(-0.0478672 -0.0130041 0)
(-0.0454729 -0.013468 0)
(-0.0429984 -0.0138467 0)
(-0.0404586 -0.0141357 0)
(-0.037869 -0.0143312 0)
(-0.0352458 -0.0144298 0)
(-0.0326058 -0.0144286 0)
(-0.029966 -0.0143254 0)
(-0.0273438 -0.0141187 0)
(-0.0247566 -0.013808 0)
(-0.022222 -0.0133935 0)
(-0.0197572 -0.0128767 0)
(-0.0173792 -0.0122603 0)
(-0.0151044 -0.0115483 0)
(-0.0129486 -0.0107465 0)
(-0.0109265 -0.00986238 0)
(-0.00905182 -0.00890578 0)
(-0.00733664 -0.00788888 0)
(-0.0057915 -0.00682675 0)
(-0.00442495 -0.00573775 0)
(-0.00324323 -0.004644 0)
(-0.00224984 -0.00357189 0)
(-0.00144491 -0.0025526 0)
(-0.000824337 -0.00162254 0)
(-0.000377691 -0.000823636 0)
(-8.79517e-05 -0.000203085 0)
(-0.000111596 0.0003557 0)
(-0.000475616 0.00126595 0)
(-0.00102565 0.00233844 0)
(-0.00177637 0.00352494 0)
(-0.00273477 0.00478244 0)
(-0.00390103 0.00607355 0)
(-0.00527107 0.00736634 0)
(-0.00683772 0.00863393 0)
(-0.00859142 0.00985401 0)
(-0.0105207 0.0110084 0)
(-0.0126125 0.0120822 0)
(-0.0148526 0.0130641 0)
(-0.0172255 0.0139449 0)
(-0.0197149 0.014718 0)
(-0.0223042 0.0153788 0)
(-0.0249757 0.0159241 0)
(-0.027712 0.0163524 0)
(-0.0304952 0.0166633 0)
(-0.0333074 0.0168575 0)
(-0.0361311 0.0169363 0)
(-0.0389488 0.0169022 0)
(-0.0417433 0.0167579 0)
(-0.044498 0.016507 0)
(-0.0471967 0.0161531 0)
(-0.0498238 0.0157007 0)
(-0.0523644 0.0151541 0)
(-0.0548043 0.0145182 0)
(-0.0571298 0.0137982 0)
(-0.0593284 0.0129992 0)
(-0.0613881 0.0121266 0)
(-0.0632978 0.0111861 0)
(-0.0650473 0.0101833 0)
(-0.0666275 0.00912412 0)
(-0.0680299 0.00801446 0)
(-0.0692471 0.0068604 0)
(-0.0702727 0.00566811 0)
(-0.0711011 0.00444384 0)
(-0.071728 0.00319398 0)
(-0.0721499 0.00192497 0)
(-0.0723643 0.000643371 0)
(-0.0723697 -0.000644176 0)
(-0.0721659 -0.00193095 0)
(-0.0717536 -0.00321014 0)
(-0.0711344 -0.00447488 0)
(-0.0703112 -0.00571824 0)
(-0.069288 -0.00693325 0)
(-0.0680697 -0.00811291 0)
(-0.0666623 -0.00925022 0)
(-0.0650731 -0.0103382 0)
(-0.0633103 -0.0113699 0)
(-0.0613831 -0.0123384 0)
(-0.0593019 -0.0132371 0)
(-0.057078 -0.0140593 0)
(-0.0547237 -0.0147985 0)
(-0.0522522 -0.0154488 0)
(-0.0496778 -0.0160042 0)
(-0.0470154 -0.0164592 0)
(-0.0442809 -0.0168088 0)
(-0.0414907 -0.0170485 0)
(-0.0386621 -0.0171742 0)
(-0.0358125 -0.0171827 0)
(-0.0329602 -0.0170714 0)
(-0.0301235 -0.0168387 0)
(-0.027321 -0.0164838 0)
(-0.0245711 -0.0160072 0)
(-0.0218924 -0.0154105 0)
(-0.0193029 -0.0146969 0)
(-0.0168203 -0.0138709 0)
(-0.0144615 -0.0129392 0)
(-0.0122426 -0.0119104 0)
(-0.0101783 -0.0107953 0)
(-0.00828243 -0.00960757 0)
(-0.00656689 -0.00836385 0)
(-0.00504186 -0.0070842 0)
(-0.00371532 -0.0057925 0)
(-0.00259263 -0.00451694 0)
(-0.00167583 -0.0032904 0)
(-0.000962666 -0.0021508 0)
(-0.00044412 -0.00114114 0)
(-0.000103846 -0.000309147 0)
(-0.000127635 0.000487326 0)
(-0.000542592 0.00165255 0)
(-0.00116517 0.00297211 0)
(-0.00200935 0.00439784 0)
(-0.00308063 0.00588628 0)
(-0.00437717 0.00739923 0)
(-0.00589282 0.00890368 0)
(-0.00761834 0.0103716 0)
(-0.00954227 0.0117794 0)
(-0.0116514 0.0131077 0)
(-0.0139311 0.0143408 0)
(-0.0163655 0.015466 0)
(-0.0189379 0.0164736 0)
(-0.0216309 0.0173563 0)
(-0.0244263 0.018109 0)
(-0.0273057 0.0187281 0)
(-0.0302504 0.019212 0)
(-0.0332416 0.0195602 0)
(-0.0362604 0.0197735 0)
(-0.0392883 0.0198534 0)
(-0.0423069 0.0198027 0)
(-0.0452983 0.0196246 0)
(-0.0482448 0.0193229 0)
(-0.0511296 0.0189021 0)
(-0.0539363 0.0183671 0)
(-0.0566491 0.017723 0)
(-0.0592532 0.0169755 0)
(-0.0617344 0.0161303 0)
(-0.0640793 0.0151935 0)
(-0.0662755 0.0141714 0)
(-0.0683113 0.0130705 0)
(-0.070176 0.0118974 0)
(-0.07186 0.0106588 0)
(-0.0733545 0.0093616 0)
(-0.0746516 0.00801292 0)
(-0.0757447 0.00661987 0)
(-0.0766279 0.00518973 0)
(-0.0772967 0.00372988 0)
(-0.0777472 0.00224783 0)
(-0.077977 0.000751183 0)
(-0.0779846 -0.000752357 0)
(-0.0777695 -0.00225498 0)
(-0.0773325 -0.0037488 0)
(-0.0766754 -0.00522585 0)
(-0.0758011 -0.00667809 0)
(-0.0747138 -0.00809743 0)
(-0.0734186 -0.00947577 0)
(-0.0719218 -0.010805 0)
(-0.070231 -0.012077 0)
(-0.0683547 -0.0132837 0)
(-0.0663027 -0.0144173 0)
(-0.0640857 -0.0154699 0)
(-0.0617156 -0.0164338 0)
(-0.0592053 -0.0173017 0)
(-0.0565687 -0.0180664 0)
(-0.0538207 -0.0187213 0)
(-0.0509769 -0.01926 0)
(-0.048054 -0.0196767 0)
(-0.0450693 -0.019966 0)
(-0.0420408 -0.0201236 0)
(-0.0389871 -0.0201455 0)
(-0.0359271 -0.0200288 0)
(-0.0328804 -0.0197717 0)
(-0.0298663 -0.0193733 0)
(-0.0269046 -0.018834 0)
(-0.0240148 -0.0181559 0)
(-0.0212162 -0.0173422 0)
(-0.0185275 -0.0163983 0)
(-0.015967 -0.0153315 0)
(-0.013552 -0.0141513 0)
(-0.0112988 -0.0128697 0)
(-0.00922261 -0.0115016 0)
(-0.00733692 -0.010065 0)
(-0.00565365 -0.00858158 0)
(-0.00418263 -0.00707667 0)
(-0.00293117 -0.00558003 0)
(-0.00190326 -0.00412592 0)
(-0.00109848 -0.00275341 0)
(-0.000509137 -0.00150626 0)
(-0.000119381 -0.000432377 0)
(-0.000143238 0.000636128 0)
(-0.000607822 0.00208688 0)
(-0.00130142 0.00368035 0)
(-0.00223749 0.00536872 0)
(-0.00342014 0.00710837 0)
(-0.00484558 0.00886056 0)
(-0.00650554 0.0105915 0)
(-0.00838874 0.0122723 0)
(-0.0104817 0.0138784 0)
(-0.0127694 0.0153895 0)
(-0.0152356 0.0167888 0)
(-0.0178628 0.0180631 0)
(-0.0206329 0.0192018 0)
(-0.0235271 0.0201972 0)
(-0.0265262 0.0210436 0)
(-0.0296105 0.0217374 0)
(-0.0327602 0.0222767 0)
(-0.0359556 0.0226611 0)
(-0.0391769 0.0228913 0)
(-0.0424046 0.0229694 0)
(-0.0456195 0.0228982 0)
(-0.0488027 0.0226815 0)
(-0.0519359 0.0223237 0)
(-0.0550015 0.0218297 0)
(-0.0579824 0.0212052 0)
(-0.0608622 0.020456 0)
(-0.0636253 0.0195885 0)
(-0.0662569 0.0186093 0)
(-0.0687432 0.0175254 0)
(-0.0710711 0.0163439 0)
(-0.0732286 0.0150721 0)
(-0.0752045 0.0137177 0)
(-0.0769887 0.0122884 0)
(-0.0785721 0.0107921 0)
(-0.0799465 0.0092368 0)
(-0.0811049 0.00763073 0)
(-0.0820413 0.0059822 0)
(-0.0827508 0.00429968 0)
(-0.0832296 0.00259173 0)
(-0.083475 0.000867068 0)
(-0.0834854 -0.000865489 0)
(-0.0832604 -0.00259701 0)
(-0.0828006 -0.00431847 0)
(-0.082108 -0.00602076 0)
(-0.0811856 -0.00769468 0)
(-0.0800376 -0.00933099 0)
(-0.0786693 -0.0109204 0)
(-0.0770875 -0.0124537 0)
(-0.0752997 -0.0139216 0)
(-0.073315 -0.0153149 0)
(-0.0711433 -0.0166245 0)
(-0.0687959 -0.0178415 0)
(-0.0662852 -0.0189572 0)
(-0.0636246 -0.0199632 0)
(-0.0608284 -0.0208513 0)
(-0.0579122 -0.0216138 0)
(-0.0548924 -0.0222436 0)
(-0.0517863 -0.0227339 0)
(-0.048612 -0.0230789 0)
(-0.0453882 -0.0232732 0)
(-0.0421345 -0.0233126 0)
(-0.0388707 -0.0231937 0)
(-0.0356173 -0.0229143 0)
(-0.0323947 -0.0224735 0)
(-0.0292236 -0.0218716 0)
(-0.0261248 -0.0211108 0)
(-0.0231186 -0.0201948 0)
(-0.0202251 -0.0191294 0)
(-0.0174638 -0.0179226 0)
(-0.0148535 -0.0165847 0)
(-0.0124118 -0.0151287 0)
(-0.0101556 -0.0135707 0)
(-0.00810012 -0.0119301 0)
(-0.00625906 -0.0102295 0)
(-0.00464416 -0.00849599 0)
(-0.00326473 -0.0067604 0)
(-0.00212674 -0.00505821 0)
(-0.00123153 -0.00342934 0)
(-0.000572639 -0.00191809 0)
(-0.000134532 -0.000572327 0)
(-0.000158408 0.000801603 0)
(-0.000671319 0.0025678 0)
(-0.00143437 0.00446173 0)
(-0.00246068 0.00643605 0)
(-0.00375304 0.00844718 0)
(-0.00530581 0.0104561 0)
(-0.00710865 0.0124285 0)
(-0.00914816 0.0143348 0)
(-0.0114089 0.0161498 0)
(-0.0138739 0.0178523 0)
(-0.0165251 0.0194249 0)
(-0.0193436 0.0208537 0)
(-0.0223098 0.0221277 0)
(-0.0254034 0.0232385 0)
(-0.0286039 0.0241803 0)
(-0.0318907 0.0249493 0)
(-0.0352428 0.0255434 0)
(-0.0386394 0.0259624 0)
(-0.0420598 0.0262072 0)
(-0.0454836 0.0262801 0)
(-0.0488909 0.0261843 0)
(-0.0522619 0.0259242 0)
(-0.0555776 0.0255046 0)
(-0.0588196 0.0249312 0)
(-0.0619703 0.0242102 0)
(-0.0650125 0.0233483 0)
(-0.0679302 0.0223527 0)
(-0.0707081 0.0212308 0)
(-0.0733316 0.0199905 0)
(-0.0757874 0.0186398 0)
(-0.0780629 0.0171871 0)
(-0.0801466 0.0156409 0)
(-0.082028 0.01401 0)
(-0.0836976 0.0123033 0)
(-0.0851471 0.0105299 0)
(-0.0863692 0.00869903 0)
(-0.0873575 0.00682012 0)
(-0.0881071 0.00490274 0)
(-0.0886139 0.00295658 0)
(-0.0888752 0.000991491 0)
(-0.0888893 -0.000982568 0)
(-0.0886556 -0.0029555 0)
(-0.0881749 -0.00491711 0)
(-0.0874491 -0.00685708 0)
(-0.0864813 -0.00876504 0)
(-0.0852758 -0.0106305 0)
(-0.0838381 -0.0124431 0)