/*--------------------------------*- C++ -*----------------------------------*\
| =========                 |                                                 |
| \\      /  F ield         | OpenFOAM: The Open Source CFD Toolbox           |
|  \\    /   O peration     | Version:  4.1                                   |
|   \\  /    A nd           | Web:      www.OpenFOAM.org                      |
|    \\/     M anipulation  |                                                 |
\*---------------------------------------------------------------------------*/
FoamFile
{
    version     2.0;
    format      ascii;
    class       volVectorField;
    location    "0.036";
    object      U;
}
// * * * * * * * * * * * * * * * * * * * * * * * * * * * * * * * * * * * * * //

dimensions      [0 1 -1 0 0 0 0];

internalField   nonuniform List<vector> 
100
(
(-0.00195312 0.00201631 0)
(-0.00492929 0.0019112 0)
(-0.0093335 0.001768 0)
(-0.0114436 0.000867874 0)
(-0.0131854 0.000463057 0)
(-0.0132513 -0.000610851 0)
(-0.0117907 -0.00103901 0)
(-0.00971173 -0.00200771 0)
(-0.00521951 -0.00218322 0)
(-0.00213215 -0.00231537 0)
(-0.00264962 0.00486702 0)
(-0.00729983 0.00533925 0)
(-0.0135378 0.00496261 0)
(-0.0166441 0.00272622 0)
(-0.019028 0.00166509 0)
(-0.0191217 -0.00106461 0)
(-0.0171183 -0.00218443 0)
(-0.0140574 -0.00476413 0)
(-0.00770925 -0.00521759 0)
(-0.00287522 -0.0050146 0)
(-0.00313128 0.0121291 0)
(-0.00830524 0.0127411 0)
(-0.015283 0.0114807 0)
(-0.0187022 0.00605841 0)
(-0.0214015 0.00328578 0)
(-0.0215341 -0.00298675 0)
(-0.0194667 -0.00591411 0)
(-0.0161284 -0.0119317 0)
(-0.00903877 -0.0134336 0)
(-0.00359708 -0.0132011 0)
(-0.00488326 0.0160086 0)
(-0.011818 0.0170671 0)
(-0.0208962 0.0154511 0)
(-0.0252752 0.00844157 0)
(-0.0285088 0.00492169 0)
(-0.0287644 -0.00322553 0)
(-0.0264673 -0.00693849 0)
(-0.0222819 -0.0151316 0)
(-0.0130716 -0.0170725 0)
(-0.00558563 -0.0171899 0)
(-0.0060012 0.0293918 0)
(-0.0139937 0.0287542 0)
(-0.0244048 0.0257157 0)
(-0.0293158 0.0131844 0)
(-0.0330821 0.00733618 0)
(-0.0334463 -0.0059147 0)
(-0.0314191 -0.0122225 0)
(-0.0269004 -0.0264898 0)
(-0.0166345 -0.030494 0)
(-0.00774636 -0.0328044 0)
(-0.0117006 0.0351848 0)
(-0.0241276 0.0345609 0)
(-0.0372663 0.0307862 0)
(-0.043741 0.0164089 0)
(-0.0475766 0.00976679 0)
(-0.0483211 -0.00518136 0)
(-0.0470348 -0.0121991 0)
(-0.0414923 -0.029607 0)
(-0.0287241 -0.0346553 0)
(-0.014307 -0.0404206 0)
(-0.0141299 0.0667192 0)
(-0.0290064 0.0542108 0)
(-0.0431855 0.0469784 0)
(-0.0501084 0.0225312 0)
(-0.0542231 0.0129376 0)
(-0.0549339 -0.00815771 0)
(-0.0552661 -0.0187523 0)
(-0.0500592 -0.0472819 0)
(-0.0388 -0.0584384 0)
(-0.0208835 -0.0783284 0)
(-0.0346821 0.0760914 0)
(-0.0596627 0.0617771 0)
(-0.0665786 0.0518291 0)
(-0.0728765 0.0262231 0)
(-0.0726383 0.0158435 0)
(-0.0736061 -0.00463225 0)
(-0.0791341 -0.0146396 0)
(-0.0746923 -0.045397 0)
(-0.070787 -0.0602873 0)
(-0.038747 -0.0974138 0)
(-0.029994 0.16499 0)
(-0.039497 0.0850547 0)
(-0.0339601 0.0635396 0)
(-0.0311048 0.0266191 0)
(-0.0267843 0.0153953 0)
(-0.0218926 -0.00465847 0)
(-0.0285044 -0.0169153 0)
(-0.0213687 -0.0606025 0)
(-0.0356852 -0.0953029 0)
(-0.0148158 -0.195167 0)
(0.137223 0.138657 0)
(0.184006 0.062544 0)
(0.276866 0.044042 0)
(0.298123 0.0175417 0)
(0.318139 0.00892303 0)
(0.325551 -0.00373167 0)
(0.30723 -0.0107403 0)
(0.300893 -0.0369222 0)
(0.204947 -0.0581303 0)
(0.152273 -0.137978 0)
)
;

boundaryField
{
    movingWall
    {
        type            fixedValue;
        value           uniform (1 0 0);
    }
    fixedWalls
    {
        type            noSlip;
    }
    frontAndBack
    {
        type            empty;
    }
}


// ************************************************************************* //
