/*--------------------------------*- C++ -*----------------------------------*\
| =========                 |                                                 |
| \\      /  F ield         | OpenFOAM: The Open Source CFD Toolbox           |
|  \\    /   O peration     | Version:  4.1                                   |
|   \\  /    A nd           | Web:      www.OpenFOAM.org                      |
|    \\/     M anipulation  |                                                 |
\*---------------------------------------------------------------------------*/
FoamFile
{
    version     2.0;
    format      ascii;
    class       volScalarField;
    location    "0.0012";
    object      p;
}
// * * * * * * * * * * * * * * * * * * * * * * * * * * * * * * * * * * * * * //

dimensions      [1 -1 -2 0 0 0 0];

internalField   nonuniform List<scalar> 
441
(
100000
99999.9
99999.7
100000
100000
99999.5
100000
100000
100000
100001
100001
100001
100001
100000
100000
100000
100000
100000
100000
100000
100000
100000
100000
100000
100000
100000
100000
100000
100000
100000
100000
100001
100000
100000
100000
100000
100000
100000
100000
100000
100000
100000
100000
99999.8
99999.9
99999.9
99999.9
99999.9
100000
100000
100000
100001
100001
100001
100001
100001
100001
100001
100001
100001
100001
100001
100001
100000
99999.8
99999.8
99999.8
99999.8
99999.9
100000
100000
100000
100000
100000
100000
100001
100001
100001
100001
100001
100001
100001
100001
100001
99999.9
99999.2
99999.4
99999.3
99999.5
99999.5
99999.7
99999.9
100000
100000
100000
100001
100001
100001
100001
100001
100001
100001
100001
100001
100001
99997.9
99998.8
99998.6
99998.9
99999
99999.2
99999.4
99999.6
99999.9
100000
100000
100001
100001
100001
100001
100001
100001
100002
100001
100002
100001
99997.4
99997.9
99997.9
99998.2
99998.4
99998.7
99999
99999.3
99999.6
100000
100000
100001
100001
100001
100002
100002
100002
100002
100002
100003
100001
99997
99997.2
99997.2
99997.5
99997.7
99998.1
99998.4
99998.9
99999.4
99999.9
100000
100001
100001
100002
100002
100003
100003
100003
100003
100004
100003
99995.9
99996
99996.1
99996.5
99996.8
99997.3
99997.8
99998.4
99999
99999.8
100000
100001
100002
100002
100003
100003
100004
100004
100004
100005
100004
99994.8
99994.9
99995.1
99995.5
99995.8
99996.5
99997.1
99997.9
99998.7
99999.6
100000
100001
100002
100003
100004
100004
100005
100005
100005
100006
100005
99993.1
99993.3
99993.5
99994
99994.5
99995.3
99996.1
99997.2
99998.2
99999.4
100001
100002
100003
100004
100005
100006
100006
100007
100007
100008
100008
99991.6
99991.8
99992
99992.6
99993.2
99994.2
99995.2
99996.4
99997.7
99999.2
100001
100002
100003
100005
100006
100007
100008
100008
100009
100009
100009
99989
99989.3
99989.6
99990.5
99991.2
99992.6
99993.8
99995.5
99997.1
99998.9
100001
100002
100004
100006
100007
100009
100010
100011
100011
100012
100009
99987.1
99987.5
99987.7
99988.8
99989.6
99991.3
99992.7
99994.6
99996.5
99998.6
100001
100003
100005
100007
100009
100010
100012
100013
100013
100014
100013
99983
99983.7
99984
99985.8
99986.9
99989.2
99991
99993.5
99995.7
99998.3
100001
100003
100006
100008
100011
100012
100015
100016
100018
100017
100016
99980.7
99981.6
99981.8
99983.9
99985.1
99987.8
99989.8
99992.7
99995.2
99998
100001
100003
100006
100009
100012
100014
100017
100018
100020
100020
100020
99973.4
99975.6
99976
99979.7
99981.4
99985.3
99987.8
99991.4
99994.3
99997.6
100001
100004
100007
100010
100014
100017
100022
100022
100030
100026
100040
99971.1
99973.4
99973.7
99977.9
99979.8
99984.2
99986.9
99990.8
99993.9
99997.4
100001
100004
100008
100011
100015
100018
100023
100025
100031
100030
100038
99955.5
99963.8
99964.7
99972.9
99975.7
99981.8
99985.2
99989.9
99993.3
99997.2
100001
100004
100008
100012
100017
100020
100027
100030
100041
100041
100053
99953
99962.1
99963.2
99971.8
99974.9
99981.3
99984.8
99989.6
99993.1
99997
100001
100004
100008
100011
100017
100020
100027
100029
100040
100041
100055
99906.3
99949.1
99952.5
99968.2
99972.2
99980.3
99984.1
99989.3
99992.9
99997
100001
100004
100009
100012
100018
100021
100030
100033
100052
100058
100106
)
;

boundaryField
{
    movingWall
    {
        type            zeroGradient;
    }
    fixedWalls
    {
        type            zeroGradient;
    }
    frontAndBack
    {
        type            empty;
    }
}


// ************************************************************************* //
