/*--------------------------------*- C++ -*----------------------------------*\
| =========                 |                                                 |
| \\      /  F ield         | OpenFOAM: The Open Source CFD Toolbox           |
|  \\    /   O peration     | Version:  4.1                                   |
|   \\  /    A nd           | Web:      www.OpenFOAM.org                      |
|    \\/     M anipulation  |                                                 |
\*---------------------------------------------------------------------------*/
FoamFile
{
    version     2.0;
    format      ascii;
    class       volVectorField;
    location    "5.5";
    object      U;
}
// * * * * * * * * * * * * * * * * * * * * * * * * * * * * * * * * * * * * * //

dimensions      [0 1 -1 0 0 0 0];

internalField   nonuniform List<vector> 
400
(
(0.000172791 -0.000169941 0)
(-0.000125468 9.09224e-05 0)
(-0.00148413 0.000317222 0)
(-0.00352398 0.000482577 0)
(-0.00603006 0.000562044 0)
(-0.00869406 0.000587243 0)
(-0.0113127 0.000563196 0)
(-0.0136675 0.000494331 0)
(-0.0155545 0.000375336 0)
(-0.0167607 0.000204245 0)
(-0.017096 -1.39032e-05 0)
(-0.0164286 -0.000260196 0)
(-0.0147334 -0.000501381 0)
(-0.0121402 -0.000691442 0)
(-0.00894159 -0.000784569 0)
(-0.00559734 -0.000742076 0)
(-0.00261349 -0.000563022 0)
(-0.000517177 -0.000263053 0)
(0.000459207 4.74569e-05 0)
(0.00028736 0.000272797 0)
(-9.22416e-05 0.000116543 0)
(-0.00192681 0.00182534 0)
(-0.00599113 0.00339433 0)
(-0.0114548 0.00451065 0)
(-0.0178604 0.00507746 0)
(-0.0245457 0.00518032 0)
(-0.0310113 0.00485712 0)
(-0.0367293 0.0041272 0)
(-0.0412086 0.00298799 0)
(-0.0439709 0.00146212 0)
(-0.0446176 -0.000370874 0)
(-0.0429011 -0.00234703 0)
(-0.0388128 -0.00421709 0)
(-0.0326655 -0.00567139 0)
(-0.0251019 -0.00640699 0)
(-0.017094 -0.00620141 0)
(-0.00971378 -0.00503658 0)
(-0.00407395 -0.00310243 0)
(-0.000700141 -0.00100272 0)
(0.000148766 0.00049122 0)
(-0.000387102 0.00158579 0)
(-0.00399056 0.00599724 0)
(-0.0107609 0.00969151 0)
(-0.0193468 0.0122224 0)
(-0.0291035 0.013466 0)
(-0.0391205 0.0135551 0)
(-0.0486987 0.012563 0)
(-0.0570969 0.0105318 0)
(-0.0636303 0.00748545 0)
(-0.0676459 0.00351593 0)
(-0.0686107 -0.0011507 0)
(-0.0661976 -0.00610605 0)
(-0.0603901 -0.0107619 0)
(-0.0515853 -0.0144088 0)
(-0.0406129 -0.0163542 0)
(-0.0287598 -0.0160926 0)
(-0.0174865 -0.0135558 0)
(-0.00839433 -0.00917776 0)
(-0.00232835 -0.00418945 0)
(-3.27605e-05 -0.000140702 0)
(-0.000673772 0.00410423 0)
(-0.00600713 0.0123145 0)
(-0.0153708 0.0186663 0)
(-0.0268402 0.0228212 0)
(-0.0395941 0.0247521 0)
(-0.0525265 0.024676 0)
(-0.0648116 0.0227144 0)
(-0.0755722 0.0189364 0)
(-0.0839992 0.013402 0)
(-0.0893174 0.00628877 0)
(-0.0908799 -0.00200674 0)
(-0.0882557 -0.0107979 0)
(-0.0813454 -0.0191075 0)
(-0.0705108 -0.0257522 0)
(-0.0566296 -0.0295457 0)
(-0.0411907 -0.029578 0)
(-0.0259962 -0.0256228 0)
(-0.0132091 -0.0183107 0)
(-0.00412833 -0.00952207 0)
(-0.00021291 -0.0016221 0)
(-0.000919186 0.00764812 0)
(-0.0078286 0.0207591 0)
(-0.0195898 0.0302937 0)
(-0.0337116 0.0362571 0)
(-0.0492055 0.0388665 0)
(-0.0648057 0.0384842 0)
(-0.0796119 0.0353048 0)
(-0.0926686 0.0294278 0)
(-0.103091 0.0209459 0)
(-0.11001 0.0101135 0)
(-0.112654 -0.00251251 0)
(-0.110439 -0.0159718 0)
(-0.103081 -0.0288802 0)
(-0.0907743 -0.0395167 0)
(-0.074301 -0.0460706 0)
(-0.0552543 -0.0470337 0)
(-0.0357745 -0.0418084 0)
(-0.0187408 -0.03108 0)
(-0.00612424 -0.0173849 0)
(-0.000378099 -0.004039 0)
(-0.00113239 0.0120672 0)
(-0.00942787 0.0310616 0)
(-0.023323 0.0442493 0)
(-0.0398166 0.0521827 0)
(-0.0577757 0.055473 0)
(-0.0758134 0.0547042 0)
(-0.093 0.0501765 0)
(-0.108353 0.0420214 0)
(-0.120955 0.0303439 0)
(-0.129864 0.0154367 0)
(-0.134185 -0.00203535 0)
(-0.133125 -0.0208917 0)
(-0.126125 -0.0393698 0)
(-0.113062 -0.0551757 0)
(-0.0944499 -0.0657301 0)
(-0.071829 -0.0686565 0)
(-0.0476174 -0.062631 0)
(-0.0255607 -0.0481049 0)
(-0.00859072 -0.0282239 0)
(-0.000577885 -0.00750723 0)
(-0.00130728 0.0172504 0)
(-0.0107613 0.0429956 0)
(-0.0264588 0.0602648 0)
(-0.0449672 0.070332 0)
(-0.0650389 0.0743431 0)
(-0.0852077 0.0731819 0)
(-0.104557 0.0672931 0)
(-0.122126 0.0568398 0)
(-0.137012 0.0419101 0)
(-0.148242 0.0227753 0)
(-0.154809 0.00012388 0)
(-0.155703 -0.0247417 0)
(-0.150023 -0.0497633 0)
(-0.137196 -0.0720914 0)
(-0.117256 -0.0882571 0)
(-0.0914352 -0.0946955 0)
(-0.062228 -0.0888366 0)
(-0.0342924 -0.0703769 0)
(-0.0118546 -0.0428639 0)
(-0.000860943 -0.0123514 0)
(-0.00144061 0.0230386 0)
(-0.011787 0.0562351 0)
(-0.0288787 0.0779372 0)
(-0.0489375 0.090279 0)
(-0.0706293 0.09507 0)
(-0.0924512 0.0935723 0)
(-0.11354 0.0864202 0)
(-0.133009 0.073812 0)
(-0.150029 0.0557897 0)
(-0.163658 0.032535 0)
(-0.172841 0.0046541 0)
(-0.176395 -0.0265686 0)
(-0.173077 -0.0589313 0)
(-0.161784 -0.0891426 0)
(-0.141856 -0.112818 0)
(-0.11386 -0.124912 0)
(-0.079953 -0.12094 0)
(-0.0454978 -0.0989819 0)
(-0.0162883 -0.0623948 0)
(-0.00129376 -0.0190691 0)
(-0.00152955 0.029269 0)
(-0.0124706 0.070424 0)
(-0.0304753 0.0968011 0)
(-0.0514985 0.111496 0)
(-0.0741392 0.117101 0)
(-0.0968991 0.115337 0)
(-0.119005 0.107081 0)
(-0.139701 0.0925846 0)
(-0.158301 0.0718255 0)
(-0.173984 0.0448387 0)
(-0.185753 0.0120414 0)
(-0.192369 -0.0254644 0)
(-0.192344 -0.0655532 0)
(-0.184059 -0.104734 0)
(-0.166028 -0.137862 0)
(-0.137751 -0.158282 0)
(-0.100423 -0.158897 0)
(-0.059484 -0.134901 0)
(-0.0222738 -0.0881537 0)
(-0.00195934 -0.0283842 0)
(-0.00158029 0.0357507 0)
(-0.0128253 0.0851364 0)
(-0.0312199 0.116274 0)
(-0.0525115 0.133276 0)
(-0.0752395 0.139643 0)
(-0.0979552 0.137631 0)
(-0.120011 0.128431 0)
(-0.140844 0.112379 0)
(-0.159982 0.089399 0)
(-0.176833 0.0593472 0)
(-0.190599 0.022371 0)
(-0.200157 -0.02077 0)
(-0.203969 -0.0682885 0)
(-0.200056 -0.116864 0)
(-0.186128 -0.160991 0)
(-0.160329 -0.19261 0)
(-0.122173 -0.201527 0)
(-0.0760467 -0.178508 0)
(-0.0301686 -0.121509 0)
(-0.00297391 -0.0412489 0)
(-0.0016253 0.0423619 0)
(-0.0129589 0.100005 0)
(-0.0312331 0.135768 0)
(-0.0520234 0.154818 0)
(-0.0738087 0.161716 0)
(-0.0952516 0.159334 0)
(-0.115872 0.149265 0)
(-0.135362 0.131978 0)
(-0.15354 0.107378 0)
(-0.170141 0.0751508 0)
(-0.184706 0.0351378 0)
(-0.196423 -0.0123608 0)
(-0.20396 -0.0661442 0)
(-0.205265 -0.123504 0)
(-0.197501 -0.179202 0)
(-0.177427 -0.224447 0)
(-0.14235 -0.246034 0)
(-0.0941087 -0.228924 0)
(-0.0402019 -0.163507 0)
(-0.00449973 -0.0588587 0)
(-0.00172807 0.0490015 0)
(-0.0131453 0.114648 0)
(-0.0309033 0.154611 0)
(-0.0504163 0.175152 0)
(-0.0701026 0.182102 0)
(-0.0888496 0.179034 0)
(-0.106403 0.168036 0)
(-0.122791 0.149764 0)
(-0.138177 0.124161 0)
(-0.152705 0.090781 0)
(-0.166357 0.0491757 0)
(-0.178791 -0.000855294 0)
(-0.189133 -0.0588626 0)
(-0.195618 -0.123149 0)
(-0.195338 -0.189485 0)
(-0.184018 -0.24946 0)
(-0.156734 -0.28782 0)
(-0.111353 -0.283277 0)
(-0.0522599 -0.214239 0)
(-0.00675374 -0.0825867 0)
(-0.00204438 0.0559991 0)
(-0.01389 0.129144 0)
(-0.0309053 0.172443 0)
(-0.04839 0.193421 0)
(-0.0647186 0.19956 0)
(-0.079209 0.1952 0)
(-0.0919166 0.183019 0)
(-0.103303 0.163889 0)
(-0.11392 0.137839 0)
(-0.124356 0.104341 0)
(-0.135076 0.0627169 0)
(-0.14629 0.0123055 0)
(-0.15776 -0.0472229 0)
(-0.168343 -0.115412 0)
(-0.175653 -0.189681 0)
(-0.175078 -0.263343 0)
(-0.160168 -0.320958 0)
(-0.124016 -0.336284 0)
(-0.0654982 -0.272038 0)
(-0.00999041 -0.113851 0)
(-0.00281867 0.0636039 0)
(-0.0161364 0.143351 0)
(-0.0324522 0.188583 0)
(-0.0471715 0.208397 0)
(-0.0586878 0.212498 0)
(-0.067157 0.206021 0)
(-0.07307 0.192284 0)
(-0.0774559 0.172354 0)
(-0.0812727 0.146361 0)
(-0.0855512 0.113733 0)
(-0.0912143 0.0736368 0)
(-0.0990111 0.0250603 0)
(-0.109411 -0.0329848 0)
(-0.122095 -0.101259 0)
(-0.135759 -0.179143 0)
(-0.146315 -0.262854 0)
(-0.147199 -0.339209 0)
(-0.126955 -0.380378 0)
(-0.0778123 -0.332532 0)
(-0.0144196 -0.153606 0)
(-0.00459274 0.0740526 0)
(-0.0211243 0.158908 0)
(-0.0367046 0.203483 0)
(-0.0476184 0.219354 0)
(-0.0524194 0.219482 0)
(-0.052755 0.209682 0)
(-0.0496895 0.193844 0)
(-0.0449711 0.173099 0)
(-0.0399477 0.147609 0)
(-0.0360552 0.116756 0)
(-0.0345967 0.0796044 0)
(-0.0367804 0.0349316 0)
(-0.0437374 -0.0186875 0)
(-0.0560144 -0.0829507 0)
(-0.0737532 -0.159076 0)
(-0.0941441 -0.246778 0)
(-0.112368 -0.337477 0)
(-0.113775 -0.406797 0)
(-0.0851184 -0.388248 0)
(-0.0199933 -0.201891 0)
(-0.00820768 0.0874929 0)
(-0.0313799 0.174753 0)
(-0.0454733 0.214949 0)
(-0.0503521 0.223459 0)
(-0.0450638 0.217555 0)
(-0.0340475 0.203414 0)
(-0.01906 0.185207 0)
(-0.00271719 0.163888 0)
(0.0133365 0.139516 0)
(0.0273605 0.111394 0)
(0.037804 0.0785311 0)
(0.0431371 0.0396363 0)
(0.0417051 -0.00688797 0)
(0.032221 -0.0632196 0)
(0.01303 -0.131866 0)
(-0.014746 -0.215748 0)
(-0.0498314 -0.312359 0)
(-0.0766844 -0.406286 0)
(-0.0806416 -0.427668 0)
(-0.0258273 -0.25547 0)
(-0.0147725 0.114228 0)
(-0.0464069 0.196281 0)
(-0.0543806 0.22401 0)
(-0.0476665 0.218755 0)
(-0.0266132 0.203647 0)
(0.000186536 0.184011 0)
(0.0304917 0.163408 0)
(0.0609093 0.14211 0)
(0.0897444 0.119782 0)
(0.115166 0.0955633 0)
(0.135583 0.0684089 0)
(0.149341 0.0370748 0)
(0.154491 1.21379e-05 0)
(0.149233 -0.044956 0)
(0.130671 -0.100887 0)
(0.0982182 -0.172717 0)
(0.048489 -0.263927 0)
(-0.00494688 -0.372148 0)
(-0.0528895 -0.437577 0)
(-0.0286594 -0.308827 0)
(-0.0256544 0.142208 0)
(-0.0661697 0.208841 0)
(-0.0496017 0.215379 0)
(-0.0174323 0.193374 0)
(0.0299559 0.16943 0)
(0.0786362 0.146226 0)
(0.127395 0.125362 0)
(0.172952 0.106177 0)
(0.214274 0.0877824 0)
(0.249992 0.0691911 0)
(0.278883 0.0493807 0)
(0.299502 0.0272958 0)
(0.309958 0.00165242 0)
(0.308215 -0.0292606 0)
(0.290719 -0.0682286 0)
(0.255385 -0.120225 0)
(0.194437 -0.19259 0)
(0.11689 -0.295872 0)
(0.0167942 -0.394838 0)
(-0.0173523 -0.338469 0)
(-0.0186591 0.214963 0)
(-0.0196725 0.215493 0)
(0.0563812 0.181175 0)
(0.127723 0.139497 0)
(0.203644 0.109404 0)
(0.27084 0.0871755 0)
(0.331551 0.070142 0)
(0.384484 0.0565171 0)
(0.430043 0.0448085 0)
(0.467974 0.0339966 0)
(0.497849 0.0232219 0)
(0.518819 0.0117587 0)
(0.529511 -0.00122674 0)
(0.528107 -0.016708 0)
(0.511384 -0.0366671 0)
(0.476331 -0.0644976 0)
(0.413204 -0.108397 0)
(0.322965 -0.186638 0)
(0.172603 -0.29648 0)
(0.0428506 -0.334956 0)
(0.211431 0.129688 0)
(0.297589 0.101054 0)
(0.451513 0.0674613 0)
(0.543396 0.0442019 0)
(0.617725 0.0289177 0)
(0.673102 0.0196802 0)
(0.716547 0.0137175 0)
(0.750785 0.00973384 0)
(0.777837 0.00682336 0)
(0.798707 0.00447961 0)
(0.813809 0.00236454 0)
(0.82305 0.000255483 0)
(0.825885 -0.00206928 0)
(0.821267 -0.00479459 0)
(0.80728 -0.00846209 0)
(0.780917 -0.013663 0)
(0.734133 -0.0229017 0)
(0.658513 -0.0407523 0)
(0.498113 -0.0743973 0)
(0.288339 -0.136239 0)
)
;

boundaryField
{
    movingWall
    {
        type            fixedValue;
        value           uniform (1 0 0);
    }
    fixedWalls
    {
        type            noSlip;
    }
    frontAndBack
    {
        type            empty;
    }
}


// ************************************************************************* //
