/*--------------------------------*- C++ -*----------------------------------*\
| =========                 |                                                 |
| \\      /  F ield         | OpenFOAM: The Open Source CFD Toolbox           |
|  \\    /   O peration     | Version:  4.1                                   |
|   \\  /    A nd           | Web:      www.OpenFOAM.org                      |
|    \\/     M anipulation  |                                                 |
\*---------------------------------------------------------------------------*/
FoamFile
{
    version     2.0;
    format      ascii;
    class       volVectorField;
    location    "0.0603";
    object      U;
}
// * * * * * * * * * * * * * * * * * * * * * * * * * * * * * * * * * * * * * //

dimensions      [0 1 -1 0 0 0 0];

internalField   nonuniform List<vector> 
441
(
(0.00347589 -0.00464307 0)
(0.00896151 -0.00255092 0)
(-0.000637738 -2.1811e-165 0)
(0.00180217 -2.99145e-266 0)
(-0.00855928 -0.00720928 0)
(-0.00180217 -2.84184e-232 0)
(-1.09992e-202 -4.98881e-203 0)
(-1.24705e-203 -6.47676e-228 0)
(-1.5806e-212 -2.79565e-213 0)
(-0.00562703 8.40032e-266 0)
(-0.0684485 0.0225102 0)
(-0.0864544 0.0119064 0)
(-0.0981247 0.00558022 0)
(-0.0874666 0.000592537 0)
(-0.0734439 -0.00130127 0)
(-0.0506859 -0.0026609 0)
(-0.0307123 -0.00199885 0)
(-0.0121393 -0.00166145 0)
(-7.77626e-05 0.000415607 0)
(0.00292682 0.00111291 0)
(0.00419196 0.00268756 0)
(0.00344115 -0.0076021 0)
(-0.0016952 0.0066162 0)
(-0.0270122 0.00797985 0)
(-0.0568355 0.0105575 0)
(-0.100798 0.0100022 0)
(-0.141439 -0.00372072 0)
(-0.179248 -0.000284501 0)
(-0.215161 0.00145053 0)
(-0.246863 0.0119804 0)
(-0.278995 0.0608439 0)
(-0.301222 0.0563538 0)
(-0.296498 0.0181352 0)
(-0.284498 -0.00507303 0)
(-0.248042 -0.0259984 0)
(-0.205055 -0.0355887 0)
(-0.149525 -0.0413031 0)
(-0.0985497 -0.0363416 0)
(-0.0517618 -0.0302085 0)
(-0.0188327 -0.0149854 0)
(-0.00327719 -0.00612225 0)
(0.00443765 0.00465129 0)
(0.0069326 -0.00691567 0)
(-0.00544369 0.0275166 0)
(-0.0516633 0.0537692 0)
(-0.11318 0.071447 0)
(-0.18736 0.076302 0)
(-0.263645 0.0745907 0)
(-0.344733 0.0711278 0)
(-0.40955 0.0653937 0)
(-0.473299 0.0613869 0)
(-0.503897 0.058605 0)
(-0.499902 0.0409041 0)
(-0.484255 -0.00367012 0)
(-0.452864 -0.0422102 0)
(-0.396325 -0.0786826 0)
(-0.328615 -0.0988753 0)
(-0.245089 -0.109453 0)
(-0.1667 -0.0986054 0)
(-0.0931869 -0.081885 0)
(-0.0399876 -0.0469823 0)
(-0.00977745 -0.0225868 0)
(0.00582627 0.00427392 0)
(0.00605174 -0.009358 0)
(-0.014683 0.0668782 0)
(-0.0894653 0.115742 0)
(-0.176663 0.148507 0)
(-0.2786 0.160821 0)
(-0.380339 0.156255 0)
(-0.479753 0.147181 0)
(-0.56502 0.130838 0)
(-0.635006 0.108546 0)
(-0.676082 0.0848886 0)
(-0.684514 0.0364656 0)
(-0.664149 -0.0299873 0)
(-0.621477 -0.0931314 0)
(-0.54655 -0.151377 0)
(-0.456251 -0.186633 0)
(-0.344923 -0.204692 0)
(-0.238923 -0.187678 0)
(-0.137037 -0.15856 0)
(-0.0623072 -0.0975395 0)
(-0.0159898 -0.0533089 0)
(0.00759183 0.00107655 0)
(6.4776e-165 0.00151294 0)
(-0.0219174 0.122599 0)
(-0.128444 0.21499 0)
(-0.23647 0.259226 0)
(-0.3644 0.278955 0)
(-0.487898 0.274023 0)
(-0.610191 0.254615 0)
(-0.713137 0.219641 0)
(-0.798701 0.171807 0)
(-0.849338 0.10878 0)
(-0.865281 0.0293902 0)
(-0.846432 -0.0664664 0)
(-0.797056 -0.159046 0)
(-0.707783 -0.244245 0)
(-0.596605 -0.299415 0)
(-0.455695 -0.327634 0)
(-0.319726 -0.305012 0)
(-0.183053 -0.259592 0)
(-0.0844927 -0.16634 0)
(-0.0170637 -0.0933388 0)
(0.014176 -0.00331843 0)
(-5.2652e-266 0.00536185 0)
(-0.0821912 0.199838 0)
(-0.178681 0.32844 0)
(-0.307808 0.386239 0)
(-0.447142 0.41216 0)
(-0.589483 0.403097 0)
(-0.726518 0.373034 0)
(-0.847267 0.319597 0)
(-0.947224 0.245577 0)
(-1.01433 0.150706 0)
(-1.04665 0.0338459 0)
(-1.03588 -0.09921 0)
(-0.987593 -0.231522 0)
(-0.888131 -0.353396 0)
(-0.758311 -0.438245 0)
(-0.586144 -0.483967 0)
(-0.415905 -0.45926 0)
(-0.237987 -0.396873 0)
(-0.110201 -0.261586 0)
(-0.0174644 -0.155163 0)
(0.0161044 -0.000568242 0)
(-0.0214474 0.0868269 0)
(-0.114224 0.297859 0)
(-0.225413 0.440995 0)
(-0.367361 0.525955 0)
(-0.524199 0.559892 0)
(-0.683713 0.552034 0)
(-0.839941 0.511666 0)
(-0.979904 0.43948 0)
(-1.10016 0.338673 0)
(-1.18721 0.207968 0)
(-1.23886 0.0514372 0)
(-1.24233 -0.12583 0)
(-1.20127 -0.305804 0)
(-1.0971 -0.47442 0)
(-0.952104 -0.599929 0)
(-0.746753 -0.671824 0)
(-0.539005 -0.650895 0)
(-0.306613 -0.567654 0)
(-0.147023 -0.383663 0)
(-0.00476931 -0.221446 0)
(5.84565e-266 -0.0040261 0)
(-0.0157218 0.143403 0)
(-0.10901 0.404934 0)
(-0.246783 0.58217 0)
(-0.408288 0.685819 0)
(-0.584366 0.7288 0)
(-0.762678 0.719165 0)
(-0.937425 0.66957 0)
(-1.09856 0.579718 0)
(-1.24112 0.4533 0)
(-1.35316 0.288847 0)
(-1.43029 0.0893669 0)
(-1.45566 -0.13787 0)
(-1.43056 -0.376253 0)
(-1.33001 -0.604723 0)
(-1.17594 -0.787884 0)
(-0.940213 -0.901078 0)
(-0.691 -0.897732 0)
(-0.398265 -0.795019 0)
(-0.192172 -0.558861 0)
(-0.00308309 -0.311549 0)
(2.44865e-24 -1.15772e-24 0)
(-0.0139479 0.208153 0)
(-0.112987 0.527131 0)
(-0.267618 0.738764 0)
(-0.444502 0.861779 0)
(-0.63769 0.913064 0)
(-0.832415 0.903572 0)
(-1.02516 0.846708 0)
(-1.20673 0.742073 0)
(-1.37262 0.593053 0)
(-1.51155 0.396506 0)
(-1.6175 0.154499 0)
(-1.67136 -0.126102 0)
(-1.67082 -0.430061 0)
(-1.5846 -0.730318 0)
(-1.43186 -0.987558 0)
(-1.17293 -1.15982 0)
(-0.884454 -1.18921 0)
(-0.523492 -1.07156 0)
(-0.260123 -0.771336 0)
(-0.00465155 -0.421151 0)
(1.00303e-76 -6.12163e-25 0)
(-0.0122655 0.270967 0)
(-0.112271 0.660294 0)
(-0.277975 0.914472 0)
(-0.465537 1.05651 0)
(-0.670893 1.1172 0)
(-0.877871 1.10663 0)
(-1.08383 1.04416 0)
(-1.28222 0.926764 0)
(-1.46813 0.758287 0)
(-1.63289 0.53299 0)
(-1.76862 0.249447 0)
(-1.85575 -0.0857633 0)
(-1.88817 -0.462428 0)
(-1.82897 -0.846311 0)
(-1.69188 -1.19876 0)
(-1.42409 -1.45431 0)
(-1.10388 -1.54565 0)
(-0.67386 -1.42938 0)
(-0.342254 -1.07218 0)
(-0.00647717 -0.586533 0)
(2.79889e-164 -2.50758e-77 0)
(-0.0125972 0.329373 0)
(-0.115809 0.791125 0)
(-0.290039 1.08981 0)
(-0.484251 1.25249 0)
(-0.695565 1.32376 0)
(-0.907759 1.31453 0)
(-1.11849 1.24998 0)
(-1.32521 1.1249 0)
(-1.52226 0.943282 0)
(-1.70588 0.696107 0)
(-1.8662 0.377888 0)
(-1.98703 -0.00701064 0)
(-2.05761 -0.454948 0)
(-2.03914 -0.927592 0)
(-1.93654 -1.38919 0)
(-1.68386 -1.75154 0)
(-1.353 -1.93458 0)
(-0.868171 -1.84116 0)
(-0.466294 -1.42729 0)
(-0.0762895 -0.776095 0)
(1.74018e-265 0.0129128 0)
(-0.01355 0.400314 0)
(-0.116256 0.939907 0)
(-0.292762 1.28444 0)
(-0.485781 1.46275 0)
(-0.693254 1.54188 0)
(-0.899939 1.52951 0)
(-1.10291 1.46222 0)
(-1.30478 1.33003 0)
(-1.49882 1.13906 0)
(-1.68803 0.876119 0)
(-1.86141 0.53054 0)
(-2.00918 0.104529 0)
(-2.11775 -0.409906 0)
(-2.14983 -0.969716 0)
(-2.10108 -1.55309 0)
(-1.89289 -2.04443 0)
(-1.57921 -2.3603 0)
(-1.0567 -2.33016 0)
(-0.568836 -1.85833 0)
(-0.0738493 -1.07218 0)
(0.0516513 -0.0720309 0)
(-0.017283 0.454826 0)
(-0.123904 1.06741 0)
(-0.305019 1.45644 0)
(-0.493322 1.64968 0)
(-0.686814 1.7361 0)
(-0.875218 1.72159 0)
(-1.05249 1.65382 0)
(-1.23088 1.51919 0)
(-1.40009 1.32617 0)
(-1.57462 1.05806 0)
(-1.74037 0.699632 0)
(-1.90106 0.249635 0)
(-2.03803 -0.311843 0)
(-2.12623 -0.943608 0)
(-2.14765 -1.641 0)
(-2.01879 -2.2753 0)
(-1.76978 -2.7644 0)
(-1.23394 -2.86029 0)
(-0.704695 -2.40365 0)
(0.039859 -1.40348 0)
(2.3839e-231 -0.0129128 0)
(-0.0222961 0.544419 0)
(-0.130103 1.2307 0)
(-0.308822 1.65771 0)
(-0.482334 1.84564 0)
(-0.648181 1.9269 0)
(-0.802536 1.89551 0)
(-0.935552 1.8198 0)
(-1.06975 1.67763 0)
(-1.19094 1.48345 0)
(-1.3258 1.21628 0)
(-1.45835 0.856765 0)
(-1.60759 0.402047 0)
(-1.75427 -0.184996 0)
(-1.89034 -0.860679 0)
(-1.99215 -1.65982 0)
(-1.98081 -2.42669 0)
(-1.85794 -3.14414 0)
(-1.41415 -3.41337 0)
(-0.890408 -3.1262 0)
(-0.0033762 -1.81372 0)
(5.74218e-202 4.54997e-184 0)
(-0.0386439 0.600205 0)
(-0.164628 1.34786 0)
(-0.35038 1.80485 0)
(-0.507022 1.98356 0)
(-0.627278 2.05473 0)
(-0.728714 2.00556 0)
(-0.789836 1.9208 0)
(-0.854382 1.77335 0)
(-0.897376 1.5827 0)
(-0.964932 1.32615 0)
(-1.0324 0.982677 0)
(-1.14375 0.548006 0)
(-1.26912 -0.0259667 0)
(-1.44063 -0.701781 0)
(-1.60915 -1.54265 0)
(-1.75384 -2.40633 0)
(-1.79688 -3.31501 0)
(-1.5617 -3.83665 0)
(-1.11751 -3.79137 0)
(-0.0111104 -2.32383 0)
(1.81999e-183 -5.49961e-185 0)
(-0.0575146 0.755699 0)
(-0.201131 1.54675 0)
(-0.381511 2.00953 0)
(-0.505911 2.12393 0)
(-0.562266 2.15576 0)
(-0.591291 2.0588 0)
(-0.561046 1.94975 0)
(-0.534678 1.78597 0)
(-0.477817 1.59581 0)
(-0.452734 1.35264 0)
(-0.428139 1.03549 0)
(-0.467359 0.641069 0)
(-0.537074 0.110159 0)
(-0.700229 -0.517256 0)
(-0.909747 -1.34975 0)
(-1.19002 -2.23543 0)
(-1.45813 -3.34118 0)
(-1.54678 -4.09972 0)
(-1.41785 -4.69424 0)
(-0.462704 -2.97825 0)
(4.38475e-254 -4.54997e-184 0)
(-0.123182 0.844883 0)
(-0.334383 1.65874 0)
(-0.507367 2.10447 0)
(-0.584523 2.15464 0)
(-0.524862 2.13939 0)
(-0.444629 1.99944 0)
(-0.277282 1.86518 0)
(-0.128802 1.68916 0)
(0.0592722 1.50234 0)
(0.198953 1.27891 0)
(0.340216 0.999502 0)
(0.390573 0.662888 0)
(0.40821 0.210577 0)
(0.268935 -0.319709 0)
(0.0735979 -1.0448 0)
(-0.366573 -1.84679 0)
(-0.798408 -2.93211 0)
(-1.51167 -3.87593 0)
(-1.67542 -4.78581 0)
(-2.06704 -3.81803 0)
(-2.56495e-264 -0.21455 0)
(-0.178841 1.2347 0)
(-0.427396 1.93526 0)
(-0.531595 2.282 0)
(-0.505801 2.14168 0)
(-0.290651 2.02971 0)
(-0.065482 1.81087 0)
(0.257427 1.64053 0)
(0.544679 1.44955 0)
(0.869914 1.27017 0)
(1.13154 1.0735 0)
(1.39155 0.843314 0)
(1.54501 0.578043 0)
(1.66149 0.228424 0)
(1.59821 -0.173129 0)
(1.46122 -0.724973 0)
(1.03123 -1.34692 0)
(0.51029 -2.22702 0)
(-0.401461 -3.17872 0)
(-1.11359 -4.22824 0)
(-1.84758 -4.50589 0)
(-0.858201 -2.30799 0)
(-0.400071 1.41676 0)
(-0.72852 1.9828 0)
(-0.531996 2.17706 0)
(-0.265658 1.89683 0)
(0.272882 1.7001 0)
(0.718302 1.44349 0)
(1.25534 1.25704 0)
(1.69683 1.07467 0)
(2.15987 0.917389 0)
(2.52605 0.760175 0)
(2.88133 0.588337 0)
(3.10669 0.401573 0)
(3.29785 0.160775 0)
(3.28095 -0.103776 0)
(3.21336 -0.474111 0)
(2.79776 -0.87369 0)
(2.33543 -1.4998 0)
(1.32442 -2.22204 0)
(0.431404 -3.34411 0)
(-0.718016 -3.99585 0)
(-0.699503 -2.96225 0)
(-0.256029 2.42516 0)
(-0.100261 2.06185 0)
(0.685263 1.86966 0)
(1.32602 1.32897 0)
(2.13177 1.06612 0)
(2.74656 0.821653 0)
(3.38764 0.668218 0)
(3.88904 0.540853 0)
(4.37999 0.441422 0)
(4.75641 0.351684 0)
(5.10932 0.261008 0)
(5.33147 0.166766 0)
(5.52013 0.0507721 0)
(5.51578 -0.0758352 0)
(5.47446 -0.251653 0)
(5.1192 -0.447317 0)
(4.73842 -0.784737 0)
(3.81406 -1.2422 0)
(2.85589 -2.25348 0)
(1.08748 -3.32908 0)
(-0.0452641 -3.79966 0)
(1.6682 1.6705 0)
(2.70697 0.975669 0)
(4.54908 0.748896 0)
(5.38679 0.423485 0)
(6.25031 0.285351 0)
(6.75481 0.176578 0)
(7.22799 0.119792 0)
(7.54553 0.0797611 0)
(7.83895 0.0539172 0)
(8.03914 0.0340598 0)
(8.22132 0.016424 0)
(8.31345 -0.00029103 0)
(8.39066 -0.0211043 0)
(8.33914 -0.0419681 0)
(8.28419 -0.0776632 0)
(8.00268 -0.111238 0)
(7.75033 -0.201108 0)
(6.99798 -0.294174 0)
(6.26415 -0.626434 0)
(4.04675 -0.998495 0)
(2.00664 -1.8194 0)
)
;

boundaryField
{
    movingWall
    {
        type            fixedValue;
        value           uniform (10 0 0);
    }
    fixedWalls
    {
        type            noSlip;
    }
    frontAndBack
    {
        type            empty;
    }
}


// ************************************************************************* //
