/*--------------------------------*- C++ -*----------------------------------*\
| =========                 |                                                 |
| \\      /  F ield         | OpenFOAM: The Open Source CFD Toolbox           |
|  \\    /   O peration     | Version:  4.1                                   |
|   \\  /    A nd           | Web:      www.OpenFOAM.org                      |
|    \\/     M anipulation  |                                                 |
\*---------------------------------------------------------------------------*/
FoamFile
{
    version     2.0;
    format      ascii;
    class       volScalarField;
    location    "0.0002";
    object      p;
}
// * * * * * * * * * * * * * * * * * * * * * * * * * * * * * * * * * * * * * //

dimensions      [1 -1 -2 0 0 0 0];

internalField   nonuniform List<scalar> 
441
(
100000
99999.9
99999.8
100000
99999.9
99999.5
99999.9
100000
100001
100002
100001
100001
100001
100000
100000
100000
100000
100000
100000
100000
100000
100000
100000
100000
100000
100000
100000
100000
100000
100000
100000
100001
100001
100000
100000
100000
100000
100000
100000
100000
100000
100000
99999.8
99999.8
99999.8
99999.8
99999.8
99999.8
100000
100000
100000
100001
100001
100001
100001
100000
100000
100000
100000
100000
100001
100001
100001
99999.8
99999.5
99999.5
99999.5
99999.5
99999.6
99999.8
99999.9
100000
100000
100000
100000
100001
100001
100001
100001
100001
100001
100001
100001
100001
99999.2
99998.8
99998.9
99998.9
99999
99999.2
99999.4
99999.6
99999.9
100000
100000
100001
100001
100001
100001
100001
100001
100001
100001
100002
100002
99997.2
99997.9
99997.9
99998.1
99998.3
99998.6
99998.9
99999.2
99999.6
100000
100000
100001
100001
100001
100002
100002
100002
100002
100002
100002
100002
99996.2
99996.7
99996.8
99997.2
99997.5
99997.8
99998.3
99998.7
99999.3
99999.8
100000
100001
100001
100002
100002
100003
100003
100003
100003
100003
100003
99995.4
99995.6
99995.7
99996
99996.4
99996.9
99997.5
99998.2
99998.9
99999.6
100000
100001
100002
100003
100003
100004
100004
100004
100004
100005
100004
99993.9
99994
99994.3
99994.7
99995.2
99995.8
99996.6
99997.5
99998.4
99999.4
100000
100001
100002
100003
100004
100005
100005
100006
100006
100006
100006
99992.1
99992.3
99992.6
99993
99993.7
99994.5
99995.5
99996.7
99997.9
99999.2
100001
100002
100003
100004
100005
100006
100007
100008
100008
100008
100008
99990
99990.1
99990.5
99991.1
99991.9
99993
99994.3
99995.7
99997.3
99999
100001
100002
100004
100006
100007
100008
100009
100010
100010
100011
100012
99987.4
99987.6
99988.1
99988.9
99989.9
99991.2
99992.8
99994.7
99996.6
99998.7
100001
100003
100005
100007
100009
100010
100011
100012
100013
100013
100013
99984.3
99984.6
99985.2
99986.2
99987.6
99989.3
99991.2
99993.5
99995.9
99998.4
100001
100004
100006
100008
100011
100012
100014
100015
100015
100016
100014
99980.7
99981.1
99981.9
99983.2
99984.9
99987
99989.5
99992.2
99995.1
99998.1
100001
100004
100007
100010
100013
100015
100017
100018
100019
100020
100019
99976.3
99976.9
99978
99979.7
99981.9
99984.6
99987.7
99990.9
99994.3
99997.8
100001
100005
100008
100012
100015
100018
100020
100023
100024
100025
100024
99971.1
99972
99973.4
99975.8
99978.7
99982.1
99985.8
99989.7
99993.6
99997.5
100001
100005
100009
100013
100017
100021
100024
100027
100030
100030
100032
99964.1
99965.9
99967.9
99971.5
99975.4
99979.7
99984.1
99988.5
99992.9
99997.3
100002
100006
100010
100015
100019
100024
100028
100032
100037
100037
100046
99956.7
99959.6
99962.3
99967.4
99972.2
99977.5
99982.6
99987.5
99992.3
99997.1
100002
100006
100011
100016
100021
100026
100032
100037
100043
100045
100052
99941.3
99949.9
99954.5
99962.7
99969.1
99975.5
99981.3
99986.8
99991.9
99996.9
100002
100007
100012
100017
100023
100029
100035
100042
100050
100055
100064
99932.6
99944.5
99950.1
99960.2
99967.3
99974.4
99980.6
99986.4
99991.7
99996.9
100002
100007
100012
100018
100024
100030
100037
100044
100055
100060
100073
99885.6
99931.5
99941
99957.2
99965.6
99973.7
99980.2
99986.1
99991.6
99996.8
100002
100007
100012
100018
100024
100031
100039
100047
100064
100073
100119
)
;

boundaryField
{
    movingWall
    {
        type            zeroGradient;
    }
    fixedWalls
    {
        type            zeroGradient;
    }
    frontAndBack
    {
        type            empty;
    }
}


// ************************************************************************* //
