/*--------------------------------*- C++ -*----------------------------------*\
| =========                 |                                                 |
| \\      /  F ield         | OpenFOAM: The Open Source CFD Toolbox           |
|  \\    /   O peration     | Version:  4.1                                   |
|   \\  /    A nd           | Web:      www.OpenFOAM.org                      |
|    \\/     M anipulation  |                                                 |
\*---------------------------------------------------------------------------*/
FoamFile
{
    version     2.0;
    format      ascii;
    class       volVectorField;
    location    "0.0585";
    object      U;
}
// * * * * * * * * * * * * * * * * * * * * * * * * * * * * * * * * * * * * * //

dimensions      [0 1 -1 0 0 0 0];

internalField   nonuniform List<vector> 
6400
(
(7.32329e-06 -7.28733e-06 0)
(2.74862e-05 -1.04254e-05 0)
(4.36957e-05 -6.90303e-06 0)
(5.02886e-05 1.8748e-06 0)
(4.34128e-05 1.40396e-05 0)
(2.08251e-05 2.81407e-05 0)
(-1.8558e-05 4.31263e-05 0)
(-7.498e-05 5.82531e-05 0)
(-0.000148092 7.30011e-05 0)
(-0.000237133 8.70103e-05 0)
(-0.000341059 0.000100035 0)
(-0.000458636 0.000111913 0)
(-0.000588506 0.000122538 0)
(-0.000729238 0.000131851 0)
(-0.000879363 0.000139822 0)
(-0.0010374 0.000146442 0)
(-0.00120187 0.000151723 0)
(-0.00137132 0.000155688 0)
(-0.00154433 0.000158367 0)
(-0.00171951 0.0001598 0)
(-0.00189554 0.00016003 0)
(-0.00207111 0.000159105 0)
(-0.00224501 0.000157076 0)
(-0.00241605 0.000153994 0)
(-0.00258312 0.000149914 0)
(-0.00274516 0.000144889 0)
(-0.00290116 0.000138975 0)
(-0.00305019 0.000132229 0)
(-0.00319137 0.000124705 0)
(-0.00332388 0.000116461 0)
(-0.00344698 0.000107553 0)
(-0.00355996 9.80384e-05 0)
(-0.00366221 8.79734e-05 0)
(-0.00375314 7.7416e-05 0)
(-0.00383225 6.64242e-05 0)
(-0.00389911 5.50564e-05 0)
(-0.00395333 4.3372e-05 0)
(-0.0039946 3.14308e-05 0)
(-0.00402268 1.92936e-05 0)
(-0.00403739 7.02226e-06 0)
(-0.00403861 -5.32051e-06 0)
(-0.00402631 -1.76708e-05 0)
(-0.0040005 -2.99638e-05 0)
(-0.00396128 -4.21333e-05 0)
(-0.00390884 -5.41121e-05 0)
(-0.00384341 -6.5832e-05 0)
(-0.00376531 -7.72238e-05 0)
(-0.00367493 -8.82176e-05 0)
(-0.00357275 -9.87426e-05 0)
(-0.00345932 -0.000108728 0)
(-0.00333526 -0.000118101 0)
(-0.00320127 -0.000126793 0)
(-0.00305814 -0.00013473 0)
(-0.00290673 -0.000141844 0)
(-0.00274796 -0.000148065 0)
(-0.00258286 -0.000153326 0)
(-0.00241249 -0.000157562 0)
(-0.002238 -0.00016071 0)
(-0.00206062 -0.00016271 0)
(-0.00188163 -0.000163509 0)
(-0.00170235 -0.000163055 0)
(-0.00152419 -0.000161305 0)
(-0.00134857 -0.000158221 0)
(-0.00117696 -0.000153773 0)
(-0.00101088 -0.000147944 0)
(-0.000851827 -0.000140727 0)
(-0.000701331 -0.000132132 0)
(-0.000560893 -0.000122187 0)
(-0.000431981 -0.000110947 0)
(-0.000315996 -9.85007e-05 0)
(-0.000214236 -8.49793e-05 0)
(-0.000127845 -7.05747e-05 0)
(-5.77503e-05 -5.55605e-05 0)
(-4.56346e-06 -4.03223e-05 0)
(3.15402e-05 -2.54017e-05 0)
(5.09974e-05 -1.15561e-05 0)
(5.50928e-05 1.62532e-07 0)
(4.62593e-05 8.3281e-06 0)
(2.84907e-05 1.11485e-05 0)
(7.48856e-06 7.42425e-06 0)
(1.05904e-05 -2.74229e-05 0)
(4.06034e-05 -4.01184e-05 0)
(5.71197e-05 -2.24472e-05 0)
(4.7042e-05 1.59408e-05 0)
(1.21677e-06 6.74385e-05 0)
(-8.58887e-05 0.000126407 0)
(-0.000217124 0.000188754 0)
(-0.000393306 0.000251556 0)
(-0.000613749 0.000312741 0)
(-0.000876672 0.000370861 0)
(-0.00117951 0.000424916 0)
(-0.00151912 0.00047423 0)
(-0.00189202 0.00051837 0)
(-0.00229443 0.000557072 0)
(-0.00272244 0.000590205 0)
(-0.00317208 0.00061773 0)
(-0.00363934 0.00063968 0)
(-0.00412025 0.000656141 0)
(-0.00461089 0.000667238 0)
(-0.00510746 0.000673127 0)
(-0.00560622 0.000673986 0)
(-0.0061036 0.000670008 0)
(-0.00659616 0.0006614 0)
(-0.00708057 0.000648378 0)
(-0.00755371 0.000631164 0)
(-0.00801257 0.000609986 0)
(-0.00845435 0.000585073 0)
(-0.00887637 0.000556659 0)
(-0.00927615 0.000524979 0)
(-0.00965138 0.00049027 0)
(-0.00999992 0.000452768 0)
(-0.0103198 0.000412713 0)
(-0.0106092 0.000370346 0)
(-0.0108666 0.000325908 0)
(-0.0110904 0.000279644 0)
(-0.0112796 0.000231801 0)
(-0.0114329 0.000182628 0)
(-0.0115495 0.000132377 0)
(-0.0116287 8.13054e-05 0)
(-0.01167 2.96725e-05 0)
(-0.0116731 -2.2257e-05 0)
(-0.0116379 -7.42144e-05 0)
(-0.0115645 -0.000125926 0)
(-0.0114531 -0.000177115 0)
(-0.0113043 -0.000227498 0)
(-0.0111187 -0.000276788 0)
(-0.0108974 -0.000324696 0)
(-0.0106413 -0.000370927 0)
(-0.0103519 -0.000415185 0)
(-0.0100307 -0.000457173 0)
(-0.00967952 -0.000496591 0)
(-0.00930033 -0.00053314 0)
(-0.00889535 -0.000566525 0)
(-0.008467 -0.000596453 0)
(-0.00801793 -0.000622636 0)
(-0.00755096 -0.000644793 0)
(-0.00706913 -0.000662653 0)
(-0.00657568 -0.000675957 0)
(-0.006074 -0.00068446 0)
(-0.00556766 -0.000687934 0)
(-0.00506039 -0.000686174 0)
(-0.00455604 -0.000678998 0)
(-0.00405858 -0.000666254 0)
(-0.00357205 -0.000647829 0)
(-0.00310058 -0.000623648 0)
(-0.00264829 -0.000593694 0)
(-0.0022193 -0.000558013 0)
(-0.00181765 -0.000516734 0)
(-0.00144723 -0.000470089 0)
(-0.00111173 -0.000418449 0)
(-0.000814507 -0.000362363 0)
(-0.000558453 -0.000302619 0)
(-0.00034584 -0.000240329 0)
(-0.000178078 -0.000177046 0)
(-5.5424e-05 -0.000114925 0)
(2.34092e-05 -5.6943e-05 0)
(6.17526e-05 -7.18974e-06 0)
(6.55848e-05 2.8792e-05 0)
(4.43931e-05 4.36623e-05 0)
(1.14018e-05 2.83591e-05 0)
(7.26882e-06 -4.38033e-05 0)
(2.37188e-05 -5.66915e-05 0)
(1.45791e-05 -1.28115e-05 0)
(-3.70339e-05 6.96183e-05 0)
(-0.000143358 0.000176649 0)
(-0.000312023 0.000297853 0)
(-0.000547115 0.000425535 0)
(-0.000849923 0.000554079 0)
(-0.00121959 0.000679422 0)
(-0.00165365 0.000798657 0)
(-0.00214841 0.000909735 0)
(-0.0026993 0.00101124 0)
(-0.00330113 0.00110223 0)
(-0.00394826 0.00118212 0)
(-0.00463476 0.00125059 0)
(-0.00535457 0.00130749 0)
(-0.00610154 0.00135288 0)
(-0.00686953 0.00138688 0)
(-0.00765247 0.00140972 0)
(-0.0084444 0.00142171 0)
(-0.00923952 0.00142319 0)
(-0.0100322 0.00141455 0)
(-0.010817 0.0013962 0)
(-0.0115887 0.00136858 0)
(-0.0123424 0.00133216 0)
(-0.0130732 0.00128739 0)
(-0.0137768 0.00123476 0)
(-0.0144489 0.00117475 0)
(-0.0150855 0.00110785 0)
(-0.015683 0.00103456 0)
(-0.0162379 0.00095538 0)
(-0.0167471 0.000870813 0)
(-0.0172079 0.000781365 0)
(-0.0176175 0.00068755 0)
(-0.0179737 0.000589882 0)
(-0.0182746 0.000488886 0)
(-0.0185184 0.000385088 0)
(-0.0187037 0.000279023 0)
(-0.0188294 0.000171236 0)
(-0.0188948 6.2275e-05 0)
(-0.0188994 -4.72988e-05 0)
(-0.0188429 -0.000156917 0)
(-0.0187256 -0.000266003 0)
(-0.0185479 -0.000373969 0)
(-0.0183106 -0.000480219 0)
(-0.0180149 -0.000584149 0)
(-0.0176622 -0.000685149 0)
(-0.0172543 -0.000782599 0)
(-0.0167935 -0.000875878 0)
(-0.0162821 -0.00096436 0)
(-0.0157231 -0.00104742 0)
(-0.0151196 -0.00112443 0)
(-0.0144751 -0.00119478 0)
(-0.0137935 -0.00125785 0)
(-0.0130789 -0.00131305 0)
(-0.0123359 -0.0013598 0)
(-0.0115692 -0.00139753 0)
(-0.0107839 -0.00142571 0)
(-0.00998545 -0.00144383 0)
(-0.00917938 -0.00145145 0)
(-0.00837155 -0.00144814 0)
(-0.00756797 -0.00143354 0)
(-0.00677483 -0.00140735 0)
(-0.00599845 -0.00136937 0)
(-0.00524517 -0.00131947 0)
(-0.00452138 -0.00125764 0)
(-0.00383339 -0.00118402 0)
(-0.00318735 -0.00109891 0)
(-0.00258916 -0.00100284 0)
(-0.00204435 -0.000896623 0)
(-0.00155789 -0.000781414 0)
(-0.00113402 -0.000658861 0)
(-0.000775999 -0.000531232 0)
(-0.00048576 -0.000401635 0)
(-0.000263548 -0.000274294 0)
(-0.00010741 -0.000154927 0)
(-1.2585e-05 -5.12287e-05 0)
(2.91859e-05 2.65354e-05 0)
(3.06247e-05 6.48369e-05 0)
(8.86668e-06 4.62956e-05 0)
(-1.23772e-06 -5.08984e-05 0)
(-1.35916e-05 -4.73201e-05 0)
(-6.59745e-05 3.85356e-05 0)
(-0.000176792 0.000180881 0)
(-0.000359674 0.000359721 0)
(-0.000623227 0.000559816 0)
(-0.000972098 0.000769674 0)
(-0.00140773 0.000980716 0)
(-0.00192901 0.0011866 0)
(-0.00253289 0.00138268 0)
(-0.00321477 0.00156561 0)
(-0.00396892 0.00173304 0)
(-0.00478877 0.00188332 0)
(-0.00566714 0.00201543 0)
(-0.00659644 0.00212873 0)
(-0.00756883 0.00222295 0)
(-0.00857634 0.00229807 0)
(-0.00961098 0.00235425 0)
(-0.0106648 0.00239183 0)
(-0.01173 0.00241126 0)
(-0.0127989 0.00241308 0)
(-0.013864 0.00239791 0)
(-0.0149183 0.00236642 0)
(-0.0159547 0.00231932 0)
(-0.0169666 0.00225737 0)
(-0.0179477 0.00218133 0)
(-0.0188921 0.00209202 0)
(-0.0197941 0.00199022 0)
(-0.0206484 0.00187678 0)
(-0.0214501 0.00175252 0)
(-0.0221947 0.00161829 0)
(-0.0228778 0.00147493 0)
(-0.0234958 0.00132331 0)
(-0.0240452 0.0011643 0)
(-0.0245229 0.000998765 0)
(-0.0249262 0.000827599 0)
(-0.0252529 0.000651697 0)
(-0.0255012 0.000471971 0)
(-0.0256694 0.00028934 0)
(-0.0257567 0.000104742 0)
(-0.0257624 -8.08736e-05 0)
(-0.0256862 -0.000266542 0)
(-0.0255284 -0.000451284 0)
(-0.0252896 -0.000634104 0)
(-0.024971 -0.000813993 0)
(-0.024574 -0.000989931 0)
(-0.0241006 -0.00116088 0)
(-0.0235533 -0.00132581 0)
(-0.022935 -0.00148366 0)
(-0.0222491 -0.00163337 0)
(-0.0214992 -0.00177391 0)
(-0.0206897 -0.00190422 0)
(-0.0198253 -0.00202327 0)
(-0.0189111 -0.00213003 0)
(-0.0179528 -0.0022235 0)
(-0.0169561 -0.00230273 0)
(-0.0159276 -0.00236678 0)
(-0.014874 -0.00241478 0)
(-0.0138025 -0.00244589 0)
(-0.0127203 -0.00245937 0)
(-0.0116352 -0.00245455 0)
(-0.0105552 -0.00243086 0)
(-0.00948844 -0.00238783 0)
(-0.00844309 -0.00232516 0)
(-0.00742751 -0.00224268 0)
(-0.00644999 -0.00214045 0)
(-0.0055187 -0.00201874 0)
(-0.00464159 -0.00187814 0)
(-0.00382624 -0.00171958 0)
(-0.00307967 -0.00154446 0)
(-0.0024082 -0.00135476 0)
(-0.00181716 -0.00115321 0)
(-0.00131059 -0.000943504 0)
(-0.00089093 -0.000730598 0)
(-0.000558523 -0.000521091 0)
(-0.000311123 -0.000323722 0)
(-0.000143252 -0.000150002 0)
(-4.55248e-05 -1.49731e-05 0)
(-3.67008e-06 6.18795e-05 0)
(1.12706e-06 5.57214e-05 0)
(-1.31268e-05 -4.49339e-05 0)
(-6.40152e-05 -2.94833e-06 0)
(-0.000171257 0.000143796 0)
(-0.000353449 0.000363411 0)
(-0.000624426 0.000630619 0)
(-0.00099284 0.000925718 0)
(-0.00146326 0.00123352 0)
(-0.00203686 0.00154243 0)
(-0.00271211 0.00184371 0)
(-0.0034853 0.00213081 0)
(-0.00435099 0.00239892 0)
(-0.00530245 0.00264455 0)
(-0.00633193 0.00286528 0)
(-0.00743092 0.00305945 0)
(-0.00859044 0.00322608 0)
(-0.00980113 0.00336463 0)
(-0.0110534 0.003475 0)
(-0.0123378 0.00355736 0)
(-0.0136446 0.00361211 0)
(-0.0149644 0.00363988 0)
(-0.016288 0.0036414 0)
(-0.0176062 0.00361756 0)
(-0.0189103 0.00356932 0)
(-0.020192 0.00349771 0)
(-0.021443 0.00340384 0)
(-0.0226557 0.00328884 0)
(-0.0238227 0.00315388 0)
(-0.0249371 0.00300017 0)
(-0.0259925 0.00282895 0)
(-0.0269827 0.00264145 0)
(-0.0279022 0.00243893 0)
(-0.0287458 0.00222269 0)
(-0.0295088 0.001994 0)
(-0.030187 0.00175418 0)
(-0.0307765 0.00150456 0)
(-0.0312743 0.00124646 0)
(-0.0316773 0.000981238 0)
(-0.0319835 0.000710277 0)
(-0.0321908 0.000434965 0)
(-0.0322982 0.000156715 0)
(-0.0323048 -0.00012304 0)
(-0.0322104 -0.000402843 0)
(-0.0320152 -0.000681218 0)
(-0.03172 -0.000956665 0)
(-0.0313263 -0.00122767 0)
(-0.0308359 -0.00149269 0)
(-0.0302513 -0.00175017 0)
(-0.0295755 -0.00199856 0)
(-0.0288121 -0.00223627 0)
(-0.0279652 -0.00246174 0)
(-0.0270394 -0.00267339 0)
(-0.02604 -0.00286966 0)
(-0.0249727 -0.003049 0)
(-0.023844 -0.0032099 0)
(-0.0226605 -0.00335087 0)
(-0.0214296 -0.00347049 0)
(-0.0201591 -0.00356739 0)
(-0.0188572 -0.00364028 0)
(-0.0175326 -0.00368795 0)
(-0.0161943 -0.00370932 0)
(-0.0148517 -0.00370342 0)
(-0.0135144 -0.00366945 0)
(-0.0121922 -0.00360677 0)
(-0.0108952 -0.00351498 0)
(-0.00963318 -0.00339392 0)
(-0.00841626 -0.00324371 0)
(-0.00725419 -0.00306487 0)
(-0.00615644 -0.00285833 0)
(-0.00513201 -0.00262555 0)
(-0.00418925 -0.00236867 0)
(-0.00333559 -0.00209065 0)
(-0.00257734 -0.00179548 0)
(-0.00191932 -0.00148847 0)
(-0.00136451 -0.00117661 0)
(-0.000913608 -0.000869013 0)
(-0.000564491 -0.000577509 0)
(-0.000311636 -0.00031735 0)
(-0.000145461 -0.000108048 0)
(-5.13284e-05 2.56477e-05 0)
(-1.00605e-05 5.2816e-05 0)
(-2.70487e-05 -2.36387e-05 0)
(-0.000122342 8.21511e-05 0)
(-0.000291752 0.000311036 0)
(-0.000553329 0.000626522 0)
(-0.000920315 0.000998984 0)
(-0.0014007 0.00140481 0)
(-0.00199842 0.00182541 0)
(-0.00271399 0.00224632 0)
(-0.00354519 0.00265638 0)
(-0.00448754 0.00304711 0)
(-0.00553473 0.00341213 0)
(-0.00667907 0.00374674 0)
(-0.00791172 0.00404759 0)
(-0.00922304 0.00431236 0)
(-0.0106028 0.00453957 0)
(-0.0120403 0.00472842 0)
(-0.0135246 0.00487863 0)
(-0.0150447 0.00499035 0)
(-0.0165897 0.00506406 0)
(-0.0181487 0.00510053 0)
(-0.0197108 0.00510072 0)
(-0.0212657 0.00506578 0)
(-0.0228032 0.00499701 0)
(-0.0243136 0.00489579 0)
(-0.0257873 0.00476362 0)
(-0.0272154 0.00460204 0)
(-0.0285894 0.00441268 0)
(-0.0299013 0.00419719 0)
(-0.0311433 0.00395727 0)
(-0.0323085 0.00369464 0)
(-0.0333903 0.00341107 0)
(-0.0343826 0.00310834 0)
(-0.03528 0.00278824 0)
(-0.0360775 0.0024526 0)
(-0.0367707 0.00210327 0)
(-0.0373558 0.00174213 0)
(-0.0378296 0.00137107 0)
(-0.0381893 0.000992001 0)
(-0.0384329 0.000606886 0)
(-0.0385588 0.000217699 0)
(-0.0385663 -0.000173554 0)
(-0.0384549 -0.000564839 0)
(-0.0382252 -0.00095409 0)
(-0.0378779 -0.00133921 0)
(-0.0374147 -0.00171809 0)
(-0.036838 -0.00208858 0)
(-0.0361504 -0.00244852 0)
(-0.0353557 -0.00279573 0)
(-0.0344579 -0.00312802 0)
(-0.0334618 -0.00344322 0)
(-0.0323731 -0.00373912 0)
(-0.0311976 -0.00401358 0)
(-0.0299423 -0.00426446 0)
(-0.0286144 -0.00448966 0)
(-0.0272219 -0.00468714 0)
(-0.0257732 -0.00485495 0)
(-0.0242776 -0.00499121 0)
(-0.0227444 -0.00509416 0)
(-0.0211838 -0.00516216 0)
(-0.0196061 -0.00519375 0)
(-0.0180224 -0.00518764 0)
(-0.0164435 -0.00514278 0)
(-0.014881 -0.00505837 0)
(-0.0133462 -0.00493389 0)
(-0.0118506 -0.0047692 0)
(-0.0104058 -0.00456459 0)
(-0.00902275 -0.00432083 0)
(-0.00771244 -0.00403929 0)
(-0.00648507 -0.00372207 0)
(-0.00535015 -0.00337214 0)
(-0.0043162 -0.00299356 0)
(-0.00339044 -0.00259171 0)
(-0.00257851 -0.00217361 0)
(-0.0018841 -0.00174837 0)
(-0.0013085 -0.00132762 0)
(-0.000850165 -0.000926191 0)
(-0.000504066 -0.000562804 0)
(-0.000261135 -0.000260938 0)
(-0.000107165 -4.97284e-05 0)
(-2.33524e-05 3.52389e-05 0)
(-4.20715e-05 1.42289e-05 0)
(-0.000184981 0.000211373 0)
(-0.000420805 0.000545322 0)
(-0.000766689 0.000976304 0)
(-0.00123478 0.00147129 0)
(-0.00183191 0.00200339 0)
(-0.00256092 0.00255102 0)
(-0.00342134 0.00309707 0)
(-0.00440998 0.00362811 0)
(-0.00552142 0.00413374 0)
(-0.00674843 0.00460601 0)
(-0.0080823 0.00503896 0)
(-0.00951318 0.00542826 0)
(-0.0110303 0.00577085 0)
(-0.0126224 0.00606473 0)
(-0.0142774 0.00630876 0)
(-0.0159834 0.00650246 0)
(-0.0177281 0.00664593 0)
(-0.0194991 0.0067397 0)
(-0.0212843 0.00678469 0)
(-0.0230717 0.00678208 0)
(-0.0248496 0.00673332 0)
(-0.0266066 0.00664005 0)
(-0.0283317 0.00650404 0)
(-0.0300143 0.00632723 0)
(-0.0316443 0.00611161 0)
(-0.033212 0.00585931 0)
(-0.0347083 0.00557248 0)
(-0.0361247 0.00525336 0)
(-0.0374532 0.0049042 0)
(-0.0386864 0.00452734 0)
(-0.0398174 0.00412511 0)
(-0.0408401 0.00369991 0)
(-0.0417488 0.00325414 0)
(-0.0425386 0.00279027 0)
(-0.0432052 0.00231076 0)
(-0.0437448 0.00181813 0)
(-0.0441544 0.00131494 0)
(-0.0444318 0.000803763 0)
(-0.0445751 0.000287229 0)
(-0.0445835 -0.000232003 0)
(-0.0444566 -0.000751235 0)
(-0.0441947 -0.00126773 0)
(-0.0437991 -0.00177872 0)
(-0.0432715 -0.00228141 0)
(-0.0426145 -0.00277295 0)
(-0.0418313 -0.00325048 0)
(-0.0409259 -0.00371115 0)
(-0.0399031 -0.00415205 0)
(-0.0387683 -0.00457032 0)
(-0.0375277 -0.00496307 0)
(-0.0361882 -0.00532747 0)
(-0.0347574 -0.00566071 0)
(-0.0332436 -0.00596006 0)
(-0.0316557 -0.00622285 0)
(-0.0300033 -0.00644651 0)
(-0.0282966 -0.00662861 0)
(-0.0265463 -0.00676688 0)
(-0.0247638 -0.0068592 0)
(-0.0229608 -0.00690369 0)
(-0.0211493 -0.00689872 0)
(-0.0193419 -0.00684297 0)
(-0.0175511 -0.00673544 0)
(-0.0157899 -0.00657557 0)
(-0.0140711 -0.00636324 0)
(-0.0124073 -0.00609891 0)
(-0.010811 -0.00578367 0)
(-0.0092943 -0.0054194 0)
(-0.00786859 -0.0050089 0)
(-0.00654448 -0.00455604 0)
(-0.00533151 -0.00406607 0)
(-0.00423787 -0.00354579 0)
(-0.00327012 -0.00300401 0)
(-0.00243282 -0.0024519 0)
(-0.00172817 -0.00190353 0)
(-0.00115549 -0.00137652 0)
(-0.000710735 -0.000892699 0)
(-0.000385855 -0.000478912 0)
(-0.000167567 -0.000167796 0)
(-3.78095e-05 1.67942e-06 0)
(-5.75781e-05 6.92127e-05 0)
(-0.000249535 0.000386455 0)
(-0.000553889 0.000849503 0)
(-0.000986757 0.0014164 0)
(-0.00155892 0.00205156 0)
(-0.00227572 0.00272546 0)
(-0.00313857 0.00341397 0)
(-0.0041457 0.00409764 0)
(-0.00529274 0.00476095 0)
(-0.00657316 0.0053917 0)
(-0.00797866 0.0059804 0)
(-0.0094995 0.00651988 0)
(-0.0111248 0.00700477 0)
(-0.0128427 0.00743128 0)
(-0.0146409 0.00779685 0)
(-0.0165062 0.00809995 0)
(-0.0184256 0.0083399 0)
(-0.0203855 0.00851672 0)
(-0.0223727 0.008631 0)
(-0.0243737 0.00868378 0)
(-0.0263754 0.00867649 0)
(-0.028365 0.00861088 0)
(-0.0303299 0.00848895 0)
(-0.0322581 0.00831291 0)
(-0.0341379 0.00808514 0)
(-0.0359582 0.00780816 0)
(-0.0377083 0.0074846 0)
(-0.0393783 0.00711719 0)
(-0.0409587 0.00670875 0)
(-0.0424407 0.00626213 0)
(-0.043816 0.00578029 0)
(-0.0450772 0.00526618 0)
(-0.0462174 0.00472286 0)
(-0.0472304 0.00415338 0)
(-0.0481108 0.00356086 0)
(-0.0488537 0.00294847 0)
(-0.0494552 0.00231942 0)
(-0.0499117 0.00167693 0)
(-0.0502209 0.00102433 0)
(-0.0503807 0.000364933 0)
(-0.0503901 -0.000297856 0)
(-0.0502488 -0.000960606 0)
(-0.0499573 -0.00161983 0)
(-0.0495166 -0.00227201 0)
(-0.048929 -0.00291358 0)
(-0.0481971 -0.00354093 0)
(-0.0473245 -0.00415044 0)
(-0.0463158 -0.00473846 0)
(-0.0451761 -0.00530133 0)
(-0.0439115 -0.00583541 0)
(-0.0425287 -0.00633705 0)
(-0.0410353 -0.00680267 0)
(-0.0394398 -0.00722873 0)
(-0.0377512 -0.00761177 0)
(-0.0359795 -0.00794844 0)
(-0.0341351 -0.00823553 0)
(-0.0322292 -0.00846998 0)
(-0.0302738 -0.00864894 0)
(-0.028281 -0.0087698 0)
(-0.026264 -0.00883022 0)
(-0.0242358 -0.00882821 0)
(-0.0222102 -0.00876215 0)
(-0.0202011 -0.00863087 0)
(-0.0182224 -0.00843372 0)
(-0.0162883 -0.00817065 0)
(-0.0144126 -0.00784231 0)
(-0.0126089 -0.00745015 0)
(-0.0108905 -0.00699659 0)
(-0.00926988 -0.00648515 0)
(-0.00775871 -0.00592069 0)
(-0.00636759 -0.00530962 0)
(-0.00510576 -0.00466023 0)
(-0.0039808 -0.00398303 0)
(-0.00299836 -0.0032912 0)
(-0.00216173 -0.00260109 0)
(-0.00147146 -0.00193282 0)
(-0.000924795 -0.00131093 0)
(-0.000515035 -0.000765025 0)
(-0.000230101 -0.000330441 0)
(-5.28045e-05 -4.84669e-05 0)
(-7.31741e-05 0.000141407 0)
(-0.000314457 0.000608017 0)
(-0.000688018 0.00122487 0)
(-0.00120898 0.00194867 0)
(-0.00188663 0.00274202 0)
(-0.0027246 0.00357334 0)
(-0.00372268 0.00441641 0)
(-0.00487756 0.00524975 0)
(-0.00618348 0.006056 0)
(-0.00763263 0.00682129 0)
(-0.00921554 0.00753475 0)
(-0.0109214 0.00818796 0)
(-0.0127381 0.00877463 0)
(-0.0146529 0.00929019 0)
(-0.0166523 0.00973153 0)
(-0.0187222 0.0100967 0)
(-0.0208483 0.0103849 0)
(-0.0230163 0.010596 0)
(-0.0252116 0.0107306 0)
(-0.0274198 0.01079 0)
(-0.0296269 0.0107757 0)
(-0.0318188 0.0106899 0)
(-0.0339822 0.010535 0)
(-0.0361038 0.0103136 0)
(-0.0381712 0.0100285 0)
(-0.0401722 0.00968295 0)
(-0.0420954 0.00928002 0)
(-0.0439299 0.00882308 0)
(-0.0456655 0.00831557 0)
(-0.0472926 0.007761 0)
(-0.0488023 0.00716299 0)
(-0.0501865 0.0065252 0)
(-0.0514377 0.00585136 0)
(-0.0525492 0.00514526 0)
(-0.0535152 0.00441076 0)
(-0.0543302 0.00365174 0)
(-0.0549901 0.00287217 0)
(-0.0554911 0.00207607 0)
(-0.0558305 0.00126749 0)
(-0.0560061 0.000450568 0)
(-0.0560169 -0.000370508 0)
(-0.0558625 -0.0011915 0)
(-0.0555433 -0.0020081 0)
(-0.0550606 -0.00281598 0)
(-0.0544168 -0.00361072 0)
(-0.0536147 -0.00438789 0)
(-0.0526584 -0.00514303 0)
(-0.0515527 -0.00587164 0)
(-0.0503031 -0.00656922 0)
(-0.0489161 -0.00723129 0)
(-0.0473993 -0.00785338 0)
(-0.0457608 -0.0084311 0)
(-0.0440097 -0.00896009 0)
(-0.0421558 -0.00943613 0)
(-0.0402099 -0.00985512 0)
(-0.0381832 -0.0102131 0)
(-0.036088 -0.0105065 0)
(-0.0339371 -0.0107317 0)
(-0.0317437 -0.0108855 0)
(-0.0295218 -0.0109653 0)
(-0.0272858 -0.0109685 0)
(-0.0250504 -0.0108933 0)
(-0.0228306 -0.0107383 0)
(-0.0206416 -0.0105027 0)
(-0.0184984 -0.0101866 0)
(-0.0164161 -0.00979089 0)
(-0.0144095 -0.00931731 0)
(-0.0124928 -0.00876887 0)
(-0.0106797 -0.00814984 0)
(-0.008983 -0.00746603 0)
(-0.00741434 -0.00672505 0)
(-0.00598409 -0.00593659 0)
(-0.00470102 -0.00511284 0)
(-0.00357198 -0.00426882 0)
(-0.00260161 -0.00342298 0)
(-0.0017919 -0.00259763 0)
(-0.00114163 -0.00181961 0)
(-0.000645639 -0.00112077 0)
(-0.000293189 -0.000538415 0)
(-6.7934e-05 -0.000115346 0)
(-8.86194e-05 0.000230631 0)
(-0.000378795 0.000875949 0)
(-0.000821313 0.00167165 0)
(-0.0014304 0.00257374 0)
(-0.00221385 0.0035436 0)
(-0.00317351 0.00454811 0)
(-0.00430733 0.00555936 0)
(-0.00561033 0.00655421 0)
(-0.0070752 0.00751367 0)
(-0.00869271 0.00842242 0)
(-0.0104521 0.00926827 0)
(-0.0123413 0.0100417 0)
(-0.0143472 0.0107356 0)
(-0.0164558 0.0113446 0)
(-0.0186526 0.011865 0)
(-0.0209226 0.0122946 0)
(-0.0232504 0.0126323 0)
(-0.0256206 0.012878 0)
(-0.0280177 0.0130322 0)
(-0.0304264 0.0130964 0)
(-0.0328315 0.0130726 0)
(-0.0352183 0.012963 0)
(-0.0375723 0.0127705 0)
(-0.0398795 0.0124983 0)
(-0.0421264 0.0121496 0)
(-0.0443003 0.0117283 0)
(-0.0463887 0.011238 0)
(-0.0483802 0.0106829 0)
(-0.0502636 0.0100668 0)
(-0.0520289 0.00939421 0)
(-0.0536666 0.00866931 0)
(-0.0551678 0.00789652 0)
(-0.0565246 0.00708035 0)
(-0.0577298 0.00622535 0)
(-0.0587771 0.00533616 0)
(-0.0596609 0.00441746 0)
(-0.0603764 0.00347403 0)
(-0.0609199 0.0025107 0)
(-0.0612882 0.00153238 0)
(-0.0614793 0.000544033 0)
(-0.0614918 -0.000449287 0)
(-0.0613254 -0.00144248 0)
(-0.0609805 -0.00243036 0)
(-0.0604586 -0.00340769 0)
(-0.059762 -0.0043692 0)
(-0.058894 -0.00530953 0)
(-0.0578587 -0.00622332 0)
(-0.0566613 -0.00710517 0)
(-0.0553078 -0.00794967 0)
(-0.0538051 -0.00875145 0)
(-0.0521613 -0.00950515 0)
(-0.050385 -0.0102055 0)
(-0.0484859 -0.0108473 0)
(-0.0464746 -0.0114254 0)
(-0.0443624 -0.0119351 0)
(-0.0421616 -0.0123716 0)
(-0.0398852 -0.0127304 0)
(-0.0375466 -0.0130075 0)
(-0.0351603 -0.0131991 0)
(-0.032741 -0.0133019 0)
(-0.0303042 -0.0133131 0)
(-0.0278655 -0.0132304 0)
(-0.025441 -0.0130522 0)
(-0.0230469 -0.0127778 0)
(-0.0206994 -0.0124072 0)
(-0.0184145 -0.0119414 0)
(-0.0162081 -0.0113827 0)
(-0.0140957 -0.0107346 0)
(-0.0120919 -0.0100021 0)
(-0.0102106 -0.00919189 0)
(-0.00846482 -0.00831279 0)
(-0.006866 -0.00737584 0)
(-0.00542424 -0.00639473 0)
(-0.00414779 -0.00538625 0)
(-0.00304277 -0.00437065 0)
(-0.00211277 -0.00337221 0)
(-0.00135826 -0.00241965 0)
(-0.000775761 -0.00154657 0)
(-0.000355859 -0.000791738 0)
(-8.29518e-05 -0.000198824 0)
(-0.000103779 0.00033655 0)
(-0.00044201 0.0011897 0)
(-0.000952675 0.00218939 0)
(-0.00164926 0.00329141 0)
(-0.00253811 0.00445634 0)
(-0.00361922 0.00564998 0)
(-0.00488869 0.00684311 0)
(-0.00633971 0.0080112 0)
(-0.0079633 0.00913393 0)
(-0.00974869 0.0101947 0)
(-0.0116837 0.0111802 0)
(-0.013755 0.0120799 0)
(-0.0159483 0.0128858 0)
(-0.0182485 0.0135919 0)
(-0.0206399 0.0141942 0)
(-0.0231065 0.0146899 0)
(-0.0256319 0.0150779 0)
(-0.0281998 0.0153578 0)
(-0.0307937 0.0155305 0)
(-0.0333974 0.0155975 0)
(-0.0359949 0.015561 0)
(-0.0385704 0.0154238 0)
(-0.0411087 0.015189 0)
(-0.0435951 0.0148604 0)
(-0.0460151 0.0144418 0)
(-0.0483553 0.0139376 0)
(-0.0506027 0.0133522 0)
(-0.0527448 0.0126902 0)
(-0.0547702 0.0119565 0)
(-0.056668 0.0111561 0)
(-0.0584282 0.0102939 0)
(-0.0600414 0.00937532 0)
(-0.0614994 0.00840549 0)
(-0.0627943 0.00738984 0)
(-0.0639196 0.00633383 0)
(-0.0648693 0.00524301 0)
(-0.0656384 0.004123 0)
(-0.0662228 0.00297952 0)
(-0.0666193 0.00181835 0)
(-0.0668255 0.000645369 0)
(-0.0668402 -0.000533473 0)
(-0.0666629 -0.00171214 0)
(-0.0662942 -0.00288454 0)
(-0.0657354 -0.00404447 0)
(-0.0649891 -0.00518571 0)
(-0.0640588 -0.00630196 0)
(-0.0629487 -0.00738688 0)
(-0.0616644 -0.00843413 0)
(-0.0602122 -0.00943733 0)
(-0.0585994 -0.0103901 0)
(-0.0568344 -0.0112863 0)
(-0.0549264 -0.0121195 0)
(-0.0528858 -0.0128838 0)
(-0.0507236 -0.0135731 0)
(-0.0484519 -0.0141817 0)
(-0.0460835 -0.0147042 0)
(-0.0436323 -0.0151352 0)
(-0.0411125 -0.0154702 0)
(-0.0385393 -0.0157045 0)
(-0.0359285 -0.0158345 0)
(-0.0332963 -0.0158567 0)
(-0.0306594 -0.0157687 0)
(-0.0280348 -0.0155686 0)
(-0.0254396 -0.0152554 0)
(-0.0228911 -0.0148293 0)
(-0.0204065 -0.0142916 0)
(-0.0180026 -0.0136446 0)
(-0.015696 -0.0128926 0)
(-0.0135026 -0.0120413 0)
(-0.0114374 -0.0110981 0)
(-0.00951465 -0.0100731 0)
(-0.00774714 -0.00897853 0)
(-0.00614636 -0.00782946 0)
(-0.00472208 -0.00664424 0)
(-0.00348205 -0.00544476 0)
(-0.00243159 -0.00425695 0)
(-0.00157293 -0.0031111 0)
(-0.000904297 -0.00204219 0)
(-0.000417566 -0.00108998 0)
(-9.77208e-05 -0.000298605 0)
(-0.00011859 0.000458755 0)
(-0.000503845 0.00154847 0)
(-0.00108155 0.00277724 0)
(-0.00186461 0.00410093 0)
(-0.002858 0.00547971 0)
(-0.00405993 0.0068786 0)
(-0.00546454 0.00826741 0)
(-0.00706316 0.00962052 0)
(-0.00884504 0.0109165 0)
(-0.0107978 0.0121376 0)
(-0.0129077 0.0132697 0)
(-0.0151602 0.0143012 0)
(-0.0175395 0.0152236 0)
(-0.0200294 0.0160302 0)
(-0.0226133 0.0167165 0)
(-0.0252738 0.0172796 0)
(-0.0279939 0.017718 0)
(-0.030756 0.0180316 0)
(-0.0335429 0.0182212 0)
(-0.0363374 0.0182885 0)
(-0.0391227 0.0182361 0)
(-0.0418822 0.0180671 0)
(-0.0445999 0.0177851 0)
(-0.0472602 0.0173944 0)
(-0.0498482 0.0168996 0)
(-0.0523495 0.0163054 0)
(-0.0547505 0.0156171 0)
(-0.0570383 0.01484 0)
(-0.0592008 0.0139796 0)
(-0.0612264 0.0130418 0)
(-0.0631048 0.0120325 0)
(-0.0648261 0.0109575 0)
(-0.0663815 0.00982314 0)
(-0.067763 0.00863556 0)
(-0.0689636 0.00740112 0)
(-0.0699769 0.00612627 0)
(-0.0707979 0.00481753 0)
(-0.0714221 0.00348154 0)
(-0.0718461 0.00212501 0)
(-0.0720676 0.000754759 0)
(-0.072085 -0.000622292 0)
(-0.071898 -0.00199915 0)
(-0.071507 -0.00336872 0)
(-0.0709137 -0.00472384 0)
(-0.0701205 -0.00605727 0)
(-0.069131 -0.0073617 0)
(-0.0679498 -0.0086298 0)
(-0.0665826 -0.00985419 0)
(-0.0650361 -0.0110275 0)
(-0.0633179 -0.0121424 0)
(-0.0614367 -0.0131915 0)
(-0.0594024 -0.0141678 0)
(-0.0572255 -0.0150641 0)
(-0.0549178 -0.0158735 0)
(-0.052492 -0.0165894 0)
(-0.0499614 -0.0172054 0)
(-0.0473406 -0.0177157 0)
(-0.0446447 -0.0181145 0)
(-0.0418895 -0.0183969 0)
(-0.0390916 -0.0185584 0)
(-0.0362682 -0.0185953 0)
(-0.0334367 -0.0185045 0)
(-0.0306152 -0.018284 0)
(-0.0278218 -0.0179328 0)
(-0.0250747 -0.0174508 0)
(-0.0223922 -0.0168395 0)
(-0.0197923 -0.0161018 0)
(-0.0172925 -0.0152422 0)
(-0.01491 -0.014267 0)
(-0.0126612 -0.0131848 0)
(-0.0105615 -0.0120063 0)
(-0.0086251 -0.0107451 0)
(-0.0068651 -0.00941743 0)
(-0.00529283 -0.00804311 0)
(-0.00391778 -0.00664544 0)
(-0.00274706 -0.00525173 0)
(-0.00178474 -0.00389356 0)
(-0.00103071 -0.00260699 0)
(-0.000478059 -0.00143248 0)
(-0.000112179 -0.000414324 0)
(-0.000133035 0.000596817 0)
(-0.000564232 0.00195136 0)
(-0.00120776 0.00343414 0)
(-0.00207609 0.0050013 0)
(-0.00317297 0.00661284 0)
(-0.0044948 0.00823328 0)
(-0.00603383 0.00983172 0)
(-0.00777946 0.0113817 0)
(-0.00971911 0.0128609 0)
(-0.0118387 0.0142507 0)
(-0.0141229 0.0155361 0)
(-0.0165557 0.0167049 0)
(-0.0191201 0.0177478 0)
(-0.0217986 0.0186579 0)
(-0.0245732 0.0194301 0)
(-0.0274259 0.0200614 0)
(-0.0303383 0.0205502 0)
(-0.0332921 0.0208964 0)
(-0.0362691 0.021101 0)
(-0.0392512 0.0211659 0)
(-0.0422207 0.0210939 0)
(-0.0451605 0.0208887 0)
(-0.0480536 0.0205545 0)
(-0.0508838 0.020096 0)
(-0.0536356 0.0195184 0)
(-0.0562939 0.0188272 0)
(-0.0588445 0.0180282 0)
(-0.0612739 0.0171277 0)
(-0.0635694 0.016132 0)
(-0.0657192 0.0150476 0)
(-0.0677122 0.0138812 0)
(-0.0695384 0.0126398 0)
(-0.0711884 0.0113303 0)
(-0.0726539 0.00995994 0)
(-0.0739276 0.0085359 0)
(-0.075003 0.00706557 0)
(-0.0758745 0.00555642 0)
(-0.0765377 0.00401605 0)
(-0.076989 0.00245215 0)
(-0.0772258 0.00087252 0)
(-0.0772467 -0.000714923 0)
(-0.0770511 -0.00230217 0)
(-0.0766395 -0.00388111 0)
(-0.0760136 -0.00544354 0)
(-0.0751759 -0.00698117 0)
(-0.0741302 -0.00848566 0)
(-0.0728812 -0.0099486 0)
(-0.0714347 -0.0113616 0)
(-0.0697977 -0.0127161 0)
(-0.0679781 -0.0140039 0)
(-0.0659851 -0.0152165 0)
(-0.0638286 -0.0163457 0)
(-0.06152 -0.0173835 0)
(-0.0590713 -0.0183219 0)
(-0.0564956 -0.0191535 0)
(-0.0538072 -0.0198709 0)
(-0.051021 -0.0204674 0)
(-0.0481528 -0.0209365 0)
(-0.0452193 -0.0212725 0)
(-0.0422377 -0.0214703 0)
(-0.039226 -0.0215257 0)
(-0.0362027 -0.0214352 0)
(-0.0331866 -0.0211963 0)
(-0.0301968 -0.020808 0)
(-0.0272526 -0.0202701 0)
(-0.0243733 -0.0195843 0)
(-0.021578 -0.0187536 0)
(-0.0188854 -0.017783 0)
(-0.016314 -0.0166794 0)
(-0.0138815 -0.015452 0)
(-0.0116045 -0.0141127 0)
(-0.00949905 -0.0126758 0)
(-0.0075796 -0.0111589 0)
(-0.00585927 -0.00958296 0)
(-0.00434933 -0.00797253 0)
(-0.00305875 -0.00635612 0)
(-0.00199343 -0.00476638 0)
(-0.00115488 -0.00324018 0)
(-0.00053729 -0.00181849 0)
(-0.000126314 -0.000545597 0)
(-0.000147132 0.000750322 0)
(-0.000623229 0.00239749 0)
(-0.00133137 0.004159 0)
(-0.00228375 0.0059914 0)
(-0.00348298 0.00785471 0)
(-0.00492375 0.00971314 0)
(-0.0065964 0.0115353 0)
(-0.00848839 0.0132941 0)
(-0.0105853 0.0149665 0)
(-0.0128712 0.0165333 0)
(-0.0153293 0.0179788 0)
(-0.0179418 0.0192902 0)
(-0.0206906 0.0204576 0)
(-0.0235567 0.0214738 0)
(-0.0265212 0.0223336 0)
(-0.0295647 0.0230337 0)
(-0.0326678 0.0235725 0)
(-0.0358114 0.0239499 0)
(-0.0389762 0.0241672 0)
(-0.0421435 0.0242266 0)
(-0.0452948 0.0241314 0)
(-0.0484119 0.0238855 0)
(-0.0514775 0.0234938 0)
(-0.0544745 0.0229616 0)
(-0.0573868 0.0222947 0)
(-0.0601988 0.0214993 0)
(-0.0628957 0.0205821 0)
(-0.0654634 0.01955 0)
(-0.0678889 0.0184102 0)
(-0.0701599 0.0171701 0)
(-0.0722648 0.0158372 0)
(-0.0741933 0.0144195 0)
(-0.0759356 0.0129247 0)
(-0.0774832 0.011361 0)
(-0.0788284 0.0097365 0)
(-0.0799645 0.00805963 0)
(-0.0808858 0.00633881 0)
(-0.0815874 0.00458263 0)
(-0.0820659 0.00279978 0)
(-0.0823185 0.000999094 0)
(-0.0823435 -0.00081049 0)
(-0.0821405 -0.00261991 0)
(-0.0817099 -0.00441999 0)
(-0.0810533 -0.00620147 0)