/*--------------------------------*- C++ -*----------------------------------*\
| =========                 |                                                 |
| \\      /  F ield         | OpenFOAM: The Open Source CFD Toolbox           |
|  \\    /   O peration     | Version:  4.1                                   |
|   \\  /    A nd           | Web:      www.OpenFOAM.org                      |
|    \\/     M anipulation  |                                                 |
\*---------------------------------------------------------------------------*/
FoamFile
{
    version     2.0;
    format      ascii;
    class       volVectorField;
    location    "3.75";
    object      U;
}
// * * * * * * * * * * * * * * * * * * * * * * * * * * * * * * * * * * * * * //

dimensions      [0 1 -1 0 0 0 0];

internalField   nonuniform List<vector> 
400
(
(0.000136497 -0.000133735 0)
(-0.000176426 0.000100959 0)
(-0.00142237 0.000298763 0)
(-0.00325033 0.000439623 0)
(-0.00546665 0.000503527 0)
(-0.00779923 0.000519033 0)
(-0.0100733 0.000492058 0)
(-0.0121069 0.000428242 0)
(-0.0137359 0.000324385 0)
(-0.0147899 0.00017906 0)
(-0.0151142 -4.63206e-06 0)
(-0.0145955 -0.000212987 0)
(-0.0132007 -0.000420616 0)
(-0.0110205 -0.000590426 0)
(-0.00828029 -0.000683579 0)
(-0.00535611 -0.000663892 0)
(-0.0026763 -0.000525237 0)
(-0.000716435 -0.000272581 0)
(0.000289024 3.63665e-06 0)
(0.000238186 0.00022457 0)
(-9.87576e-05 0.000168186 0)
(-0.00176746 0.00169551 0)
(-0.00537606 0.00305704 0)
(-0.0101751 0.00400198 0)
(-0.0157574 0.00445893 0)
(-0.0215462 0.00451161 0)
(-0.0271193 0.00420417 0)
(-0.0320411 0.00356414 0)
(-0.0359155 0.00259517 0)
(-0.0383552 0.00131388 0)
(-0.0390287 -0.00022384 0)
(-0.0377137 -0.00189639 0)
(-0.0343708 -0.00350986 0)
(-0.0292208 -0.00481121 0)
(-0.0227643 -0.00553896 0)
(-0.0158007 -0.0054815 0)
(-0.00924218 -0.00458718 0)
(-0.00408759 -0.00297247 0)
(-0.000854964 -0.00112127 0)
(9.62514e-05 0.000319362 0)
(-0.000347645 0.00149191 0)
(-0.00351308 0.00538468 0)
(-0.0094126 0.0085743 0)
(-0.0168566 0.0107135 0)
(-0.0252795 0.0117199 0)
(-0.0338974 0.0117316 0)
(-0.042125 0.0108378 0)
(-0.0493546 0.009096 0)
(-0.0550312 0.00653402 0)
(-0.0586183 0.00321708 0)
(-0.0596606 -0.000694711 0)
(-0.0578513 -0.00489594 0)
(-0.0531243 -0.00892354 0)
(-0.0457554 -0.0121906 0)
(-0.0363946 -0.0140924 0)
(-0.0261099 -0.0141458 0)
(-0.0161524 -0.0122126 0)
(-0.00795505 -0.00856867 0)
(-0.00232554 -0.00419578 0)
(-6.9391e-05 -0.000383252 0)
(-0.000582985 0.00368622 0)
(-0.00518451 0.0108643 0)
(-0.0132533 0.0163353 0)
(-0.0231223 0.0198543 0)
(-0.034081 0.021431 0)
(-0.0451846 0.0212909 0)
(-0.055747 0.0195797 0)
(-0.0650498 0.0163863 0)
(-0.0724315 0.0117647 0)
(-0.0772416 0.00583454 0)
(-0.0789098 -0.00112613 0)
(-0.0770187 -0.00860169 0)
(-0.0714113 -0.0158145 0)
(-0.0623221 -0.0217732 0)
(-0.0504418 -0.0254321 0)
(-0.0370224 -0.0259252 0)
(-0.0236234 -0.0229311 0)
(-0.0121794 -0.0168411 0)
(-0.00390048 -0.00915431 0)
(-0.000224915 -0.00183122 0)
(-0.000782892 0.00672641 0)
(-0.00669793 0.018119 0)
(-0.016792 0.0263284 0)
(-0.0289237 0.0314026 0)
(-0.0422461 0.0335654 0)
(-0.0556825 0.0331824 0)
(-0.0684888 0.0304753 0)
(-0.07988 0.0255629 0)
(-0.0891224 0.0185138 0)
(-0.0954656 0.00948593 0)
(-0.0982082 -0.00113894 0)
(-0.0967703 -0.0126384 0)
(-0.0908158 -0.0238976 0)
(-0.0804243 -0.0334546 0)
(-0.0662114 -0.039698 0)
(-0.0495423 -0.0412035 0)
(-0.0322971 -0.0372796 0)
(-0.0170625 -0.0283127 0)
(-0.0056458 -0.0163314 0)
(-0.000363839 -0.00409108 0)
(-0.000961838 0.0104984 0)
(-0.0080718 0.0269551 0)
(-0.0200359 0.0383292 0)
(-0.0342729 0.0451267 0)
(-0.0498176 0.0479113 0)
(-0.0654916 0.0472534 0)
(-0.0805292 0.0434763 0)
(-0.0941175 0.0367219 0)
(-0.10548 0.0270461 0)
(-0.113778 0.0146023 0)
(-0.118162 -0.00017352 0)
(-0.117839 -0.0163952 0)
(-0.112202 -0.0326239 0)
(-0.101047 -0.0468793 0)
(-0.0847649 -0.0568411 0)
(-0.0647136 -0.0602793 0)
(-0.0430647 -0.0558207 0)
(-0.023217 -0.0436022 0)
(-0.00784591 -0.0261565 0)
(-0.000534628 -0.00727022 0)
(-0.00112044 0.0149444 0)
(-0.00930562 0.037257 0)
(-0.0229663 0.0522066 0)
(-0.0391256 0.0609084 0)
(-0.0567213 0.064389 0)
(-0.0745061 0.0634926 0)
(-0.0917275 0.0586728 0)
(-0.107583 0.0500844 0)
(-0.121288 0.0377328 0)
(-0.131937 0.0217042 0)
(-0.138541 0.00241056 0)
(-0.140066 -0.0191795 0)
(-0.135567 -0.0413607 0)
(-0.124426 -0.0616258 0)
(-0.106626 -0.0768122 0)
(-0.0833022 -0.0835801 0)
(-0.0567685 -0.07941 0)
(-0.0313226 -0.0637412 0)
(-0.0108377 -0.0394542 0)
(-0.000784868 -0.0116849 0)
(-0.00126045 0.0199823 0)
(-0.0103909 0.0488531 0)
(-0.0255375 0.0677463 0)
(-0.0433693 0.0785214 0)
(-0.0627447 0.0827918 0)
(-0.0823812 0.0817471 0)
(-0.101573 0.0760047 0)
(-0.11957 0.0657239 0)
(-0.135625 0.0508188 0)
(-0.148818 0.0312362 0)
(-0.158061 0.00726502 0)
(-0.162111 -0.0201624 0)
(-0.159672 -0.0491919 0)
(-0.149626 -0.0768615 0)
(-0.131345 -0.0991057 0)
(-0.10542 -0.111178 0)
(-0.0739585 -0.108795 0)
(-0.0420303 -0.0899396 0)
(-0.0150118 -0.0573513 0)
(-0.0011799 -0.0178295 0)
(-0.00138217 0.0255393 0)
(-0.0113123 0.0615664 0)
(-0.0276824 0.084699 0)
(-0.0468362 0.0976642 0)
(-0.0675608 0.102793 0)
(-0.0885688 0.101695 0)
(-0.109232 0.0951961 0)
(-0.128901 0.0834595 0)
(-0.146925 0.0662783 0)
(-0.162448 0.0433958 0)
(-0.174381 0.0148775 0)
(-0.181374 -0.0185241 0)
(-0.181861 -0.0549887 0)
(-0.174223 -0.0912901 0)
(-0.15707 -0.122558 0)
(-0.130062 -0.142469 0)
(-0.0945269 -0.144298 0)
(-0.0557856 -0.123413 0)
(-0.0207875 -0.0812778 0)
(-0.00180399 -0.026436 0)
(-0.00149131 0.0315197 0)
(-0.0120802 0.0751588 0)
(-0.0293649 0.102707 0)
(-0.0493729 0.117864 0)
(-0.0708126 0.123827 0)
(-0.0924234 0.122707 0)
(-0.113683 0.115596 0)
(-0.134097 0.102678 0)
(-0.15318 0.0836218 0)
(-0.170247 0.0579301 0)
(-0.18435 0.0253683 0)
(-0.194208 -0.0136344 0)
(-0.198171 -0.0575232 0)
(-0.194253 -0.103131 0)
(-0.180289 -0.145115 0)
(-0.154682 -0.175708 0)
(-0.117262 -0.185209 0)
(-0.0725606 -0.164899 0)
(-0.0285833 -0.112781 0)
(-0.00277772 -0.038488 0)
(-0.00161583 0.0378884 0)
(-0.0127735 0.0894341 0)
(-0.0306426 0.121384 0)
(-0.0509223 0.138525 0)
(-0.0722225 0.145106 0)
(-0.093355 0.14383 0)
(-0.113935 0.136135 0)
(-0.133683 0.122265 0)
(-0.152356 0.10179 0)
(-0.169554 0.0739826 0)
(-0.184635 0.038277 0)
(-0.196601 -0.00532858 0)
(-0.203987 -0.0557816 0)
(-0.204711 -0.110393 0)
(-0.196049 -0.163932 0)
(-0.175041 -0.207764 0)
(-0.13942 -0.229188 0)
(-0.0914394 -0.213973 0)
(-0.0387096 -0.153186 0)
(-0.00427209 -0.0552501 0)
(-0.00181073 0.0446077 0)
(-0.013612 0.104136 0)
(-0.0317857 0.140209 0)
(-0.0516748 0.158816 0)
(-0.0717696 0.165527 0)
(-0.091048 0.163729 0)
(-0.10931 0.1553 0)
(-0.12657 0.140595 0)
(-0.142901 0.119152 0)
(-0.158292 0.0900597 0)
(-0.172546 0.0524513 0)
(-0.185149 0.00585382 0)
(-0.1951 -0.0493577 0)
(-0.200592 -0.111388 0)
(-0.198782 -0.175852 0)
(-0.185621 -0.234311 0)
(-0.156592 -0.271877 0)
(-0.110148 -0.26818 0)
(-0.0511327 -0.202938 0)
(-0.00651715 -0.0782116 0)
(-0.0022211 0.0520372 0)
(-0.015027 0.119405 0)
(-0.0333049 0.15889 0)
(-0.0520686 0.177939 0)
(-0.0696851 0.183869 0)
(-0.0854862 0.180843 0)
(-0.0995326 0.171281 0)
(-0.112233 0.155694 0)
(-0.124036 0.133655 0)
(-0.135394 0.104146 0)
(-0.146633 0.0660741 0)
(-0.157845 0.0185336 0)
(-0.168713 -0.0388326 0)
(-0.178057 -0.105399 0)
(-0.183509 -0.178317 0)
(-0.180583 -0.250688 0)
(-0.163103 -0.307209 0)
(-0.124743 -0.322416 0)
(-0.0650423 -0.260704 0)
(-0.00978356 -0.108951 0)
(-0.00307747 0.0604071 0)
(-0.017868 0.135067 0)
(-0.0362098 0.176705 0)
(-0.053014 0.194608 0)
(-0.0665768 0.198457 0)
(-0.0769796 0.193235 0)
(-0.0846672 0.181978 0)
(-0.0905859 0.165362 0)
(-0.095597 0.143043 0)
(-0.100638 0.113971 0)
(-0.106564 0.0769179 0)
(-0.114088 0.0306548 0)
(-0.123665 -0.0258174 0)
(-0.134978 -0.0930764 0)
(-0.146712 -0.170201 0)
(-0.154811 -0.253084 0)
(-0.15281 -0.328441 0)
(-0.129675 -0.368904 0)
(-0.0782657 -0.322257 0)
(-0.014295 -0.148594 0)
(-0.00490541 0.0718868 0)
(-0.0232602 0.152636 0)
(-0.0414143 0.193971 0)
(-0.0549941 0.207956 0)
(-0.062376 0.207696 0)
(-0.0650477 0.198908 0)
(-0.0639804 0.185209 0)
(-0.0608189 0.16734 0)
(-0.0568331 0.145017 0)
(-0.0534173 0.117182 0)
(-0.0518798 0.0825518 0)
(-0.0534743 0.0397067 0)
(-0.0593893 -0.0127942 0)
(-0.0702198 -0.0765001 0)
(-0.0861048 -0.15236 0)
(-0.104213 -0.239752 0)
(-0.119679 -0.329834 0)
(-0.118059 -0.398347 0)
(-0.0865239 -0.37998 0)
(-0.0200049 -0.197302 0)
(-0.00851859 0.086472 0)
(-0.0335761 0.170767 0)
(-0.0504218 0.208183 0)
(-0.0581813 0.21486 0)
(-0.0556886 0.208383 0)
(-0.0471584 0.194888 0)
(-0.0342164 0.178315 0)
(-0.0193567 0.15927 0)
(-0.00415851 0.137428 0)
(0.00964278 0.111723 0)
(0.0204408 0.0808682 0)
(0.0266055 0.0434006 0)
(0.0263716 -0.00231101 0)
(0.0183615 -0.0583524 0)
(0.000889215 -0.127035 0)
(-0.0248965 -0.21101 0)
(-0.0576134 -0.307461 0)
(-0.0817355 -0.400846 0)
(-0.0827728 -0.42191 0)
(-0.0260043 -0.251826 0)
(-0.0149908 0.114247 0)
(-0.0481442 0.194495 0)
(-0.0585157 0.219996 0)
(-0.0544096 0.213038 0)
(-0.0359949 0.197194 0)
(-0.0115956 0.177808 0)
(0.0167171 0.158263 0)
(0.045702 0.138559 0)
(0.073742 0.118064 0)
(0.0990102 0.09563 0)
(0.11985 0.0699807 0)
(0.134493 0.0397244 0)
(0.140855 0.00326439 0)
(0.13702 -0.0415381 0)
(0.120015 -0.0976221 0)
(0.0892509 -0.169754 0)
(0.0414136 -0.26115 0)
(-0.00982528 -0.369222 0)
(-0.0552817 -0.434296 0)
(-0.0289788 -0.306472 0)
(-0.0256796 0.142833 0)
(-0.0669038 0.208603 0)
(-0.0518296 0.213554 0)
(-0.0215398 0.19018 0)
(0.0236958 0.165516 0)
(0.0702477 0.142284 0)
(0.117123 0.121971 0)
(0.161234 0.103736 0)
(0.20167 0.0864915 0)
(0.237097 0.0690574 0)
(0.266257 0.0502486 0)
(0.287605 0.0288973 0)
(0.299122 0.00366941 0)
(0.298645 -0.0271415 0)
(0.2825 -0.0662623 0)
(0.248558 -0.118581 0)
(0.189027 -0.191269 0)
(0.113048 -0.294693 0)
(0.0147072 -0.393493 0)
(-0.0177224 -0.337382 0)
(-0.0185067 0.215586 0)
(-0.0193708 0.215894 0)
(0.0562481 0.180763 0)
(0.126608 0.13829 0)
(0.201071 0.107718 0)
(0.266615 0.0853707 0)
(0.325726 0.0685347 0)
(0.377329 0.0553325 0)
(0.421984 0.0441686 0)
(0.459508 0.0339209 0)
(0.489471 0.0236413 0)
(0.510955 0.0125405 0)
(0.522473 -0.000248443 0)
(0.522079 -0.0157014 0)
(0.50642 -0.0357772 0)
(0.472399 -0.0638317 0)
(0.410194 -0.107991 0)
(0.320842 -0.18644 0)
(0.171364 -0.296294 0)
(0.042579 -0.334766 0)
(0.211584 0.129921 0)
(0.298101 0.101266 0)
(0.452149 0.0675003 0)
(0.543765 0.0440635 0)
(0.617457 0.0286703 0)
(0.672003 0.0194017 0)
(0.714596 0.0134759 0)
(0.748118 0.00957485 0)
(0.774695 0.00676859 0)
(0.795385 0.00452824 0)
(0.810596 0.00249715 0)
(0.820186 0.000440672 0)
(0.82353 -0.00186811 0)
(0.81949 -0.00461153 0)
(0.806062 -0.00832481 0)
(0.780167 -0.0135879 0)
(0.733714 -0.0228907 0)
(0.658287 -0.0407928 0)
(0.497982 -0.0744536 0)
(0.288314 -0.136289 0)
)
;

boundaryField
{
    movingWall
    {
        type            fixedValue;
        value           uniform (1 0 0);
    }
    fixedWalls
    {
        type            noSlip;
    }
    frontAndBack
    {
        type            empty;
    }
}


// ************************************************************************* //
