/*--------------------------------*- C++ -*----------------------------------*\
| =========                 |                                                 |
| \\      /  F ield         | OpenFOAM: The Open Source CFD Toolbox           |
|  \\    /   O peration     | Version:  4.1                                   |
|   \\  /    A nd           | Web:      www.OpenFOAM.org                      |
|    \\/     M anipulation  |                                                 |
\*---------------------------------------------------------------------------*/
FoamFile
{
    version     2.0;
    format      ascii;
    class       volVectorField;
    location    "0.1215";
    object      U;
}
// * * * * * * * * * * * * * * * * * * * * * * * * * * * * * * * * * * * * * //

dimensions      [0 1 -1 0 0 0 0];

internalField   nonuniform List<vector> 
6400
(
(8.00311e-06 -7.96802e-06 0)
(3.02064e-05 -1.16041e-05 0)
(4.83967e-05 -8.05814e-06 0)
(5.6417e-05 1.21215e-06 0)
(5.00482e-05 1.41993e-05 0)
(2.68083e-05 2.93331e-05 0)
(-1.45263e-05 4.54701e-05 0)
(-7.42634e-05 6.17994e-05 0)
(-0.000152063 7.77515e-05 0)
(-0.000247131 9.29308e-05 0)
(-0.000358363 0.000107066 0)
(-0.000484441 0.000119977 0)
(-0.00062391 0.000131546 0)
(-0.000775233 0.000141703 0)
(-0.000936826 0.000150414 0)
(-0.00110709 0.000157669 0)
(-0.00128443 0.000163475 0)
(-0.00146726 0.000167857 0)
(-0.00165405 0.000170845 0)
(-0.0018433 0.000172481 0)
(-0.00203355 0.00017281 0)
(-0.00222341 0.000171883 0)
(-0.00241152 0.000169753 0)
(-0.00259662 0.000166475 0)
(-0.00277746 0.000162107 0)
(-0.0029529 0.000156708 0)
(-0.00312185 0.000150336 0)
(-0.00328327 0.000143052 0)
(-0.00343619 0.000134917 0)
(-0.00357974 0.000125991 0)
(-0.00371306 0.000116337 0)
(-0.00383542 0.000106017 0)
(-0.0039461 9.50924e-05 0)
(-0.00404449 8.36274e-05 0)
(-0.00413003 7.16855e-05 0)
(-0.00420223 5.93315e-05 0)
(-0.00426069 4.66308e-05 0)
(-0.00430506 3.36499e-05 0)
(-0.00433507 2.04562e-05 0)
(-0.00435052 7.1184e-06 0)
(-0.0043513 -6.29391e-06 0)
(-0.00433737 -1.97098e-05 0)
(-0.00430876 -3.30571e-05 0)
(-0.00426558 -4.62627e-05 0)
(-0.00420803 -5.92522e-05 0)
(-0.00413639 -7.19503e-05 0)
(-0.00405101 -8.42806e-05 0)
(-0.00395235 -9.61662e-05 0)
(-0.00384091 -0.00010753 0)
(-0.00371733 -0.000118293 0)
(-0.00358228 -0.000128379 0)
(-0.00343656 -0.00013771 0)
(-0.00328103 -0.000146209 0)
(-0.00311663 -0.0001538 0)
(-0.00294439 -0.000160411 0)
(-0.00276543 -0.000165969 0)
(-0.00258092 -0.000170404 0)
(-0.00239213 -0.000173651 0)
(-0.00220038 -0.000175649 0)
(-0.00200707 -0.000176339 0)
(-0.00181366 -0.00017567 0)
(-0.00162164 -0.000173597 0)
(-0.00143258 -0.000170083 0)
(-0.00124806 -0.000165101 0)
(-0.00106971 -0.000158633 0)
(-0.000899144 -0.000150678 0)
(-0.000737999 -0.000141249 0)
(-0.00058788 -0.000130382 0)
(-0.000450349 -0.000118142 0)
(-0.000326892 -0.000104628 0)
(-0.000218878 -8.9988e-05 0)
(-0.000127504 -7.44345e-05 0)
(-5.37227e-05 -5.82685e-05 0)
(1.85434e-06 -4.1912e-05 0)
(3.90958e-05 -2.59547e-05 0)
(5.85355e-05 -1.12174e-05 0)
(6.16248e-05 1.16475e-06 0)
(5.1051e-05 9.66135e-06 0)
(3.11695e-05 1.23677e-05 0)
(8.14071e-06 8.07412e-06 0)
(1.17681e-05 -3.01458e-05 0)
(4.54285e-05 -4.49458e-05 0)
(6.50857e-05 -2.68637e-05 0)
(5.64939e-05 1.38037e-05 0)
(9.63553e-06 6.88661e-05 0)
(-8.16003e-05 0.000132218 0)
(-0.000220417 0.000199412 0)
(-0.000407804 0.000267255 0)
(-0.000643113 0.000333482 0)
(-0.000924494 0.000396498 0)
(-0.00124923 0.0004552 0)
(-0.00161398 0.00050884 0)
(-0.00201499 0.00055693 0)
(-0.00244822 0.000599172 0)
(-0.00290946 0.000635411 0)
(-0.0033944 0.000665593 0)
(-0.00389872 0.000689747 0)
(-0.0044181 0.000707955 0)
(-0.00494832 0.000720346 0)
(-0.00548522 0.000727081 0)
(-0.00602475 0.000728347 0)
(-0.00656302 0.000724348 0)
(-0.00709627 0.000715303 0)
(-0.00762088 0.000701441 0)
(-0.00813342 0.000683001 0)
(-0.00863062 0.000660225 0)
(-0.00910938 0.000633362 0)
(-0.0095668 0.000602662 0)
(-0.0100001 0.00056838 0)
(-0.0104069 0.000530773 0)
(-0.0107846 0.0004901 0)
(-0.0111312 0.000446622 0)
(-0.0114447 0.000400603 0)
(-0.0117233 0.000352309 0)
(-0.0119655 0.000302009 0)
(-0.0121698 0.000249977 0)
(-0.0123352 0.000196487 0)
(-0.0124606 0.000141822 0)
(-0.0125452 8.62644e-05 0)
(-0.0125886 3.0104e-05 0)
(-0.0125904 -2.63653e-05 0)
(-0.0125505 -8.2845e-05 0)
(-0.012469 -0.000139031 0)
(-0.0123462 -0.000194617 0)
(-0.0121828 -0.000249287 0)
(-0.0119795 -0.000302727 0)
(-0.0117373 -0.000354616 0)
(-0.0114575 -0.000404631 0)
(-0.0111417 -0.000452446 0)
(-0.0107915 -0.000497736 0)
(-0.0104089 -0.000540175 0)
(-0.00999623 -0.000579439 0)
(-0.00955584 -0.000615209 0)
(-0.00909042 -0.000647167 0)
(-0.00860288 -0.000675007 0)
(-0.00809635 -0.000698429 0)
(-0.00757415 -0.000717145 0)
(-0.00703983 -0.000730882 0)
(-0.00649708 -0.000739384 0)
(-0.00594982 -0.000742414 0)
(-0.00540207 -0.000739761 0)
(-0.00485804 -0.00073124 0)
(-0.00432201 -0.000716703 0)
(-0.00379836 -0.00069604 0)
(-0.00329152 -0.000669187 0)
(-0.00280594 -0.000636142 0)
(-0.00234602 -0.000596973 0)
(-0.00191608 -0.000551836 0)
(-0.00152027 -0.000501005 0)
(-0.00116249 -0.000444899 0)
(-0.000846272 -0.000384132 0)
(-0.000574651 -0.000319579 0)
(-0.000349957 -0.000252464 0)
(-0.000173582 -0.000184484 0)
(-4.56583e-05 -0.000117987 0)
(3.53529e-05 -5.61989e-05 0)
(7.31998e-05 -3.53254e-06 0)
(7.44753e-05 3.40634e-05 0)
(4.95189e-05 4.87664e-05 0)
(1.26286e-05 3.10327e-05 0)
(8.42304e-06 -4.85125e-05 0)
(2.81347e-05 -6.46666e-05 0)
(2.09577e-05 -1.9198e-05 0)
(-3.14871e-05 6.83495e-05 0)
(-0.000142591 0.00018293 0)
(-0.000320775 0.000313247 0)
(-0.000570622 0.000450935 0)
(-0.000893676 0.000589865 0)
(-0.00128914 0.000725592 0)
(-0.00175445 0.000854923 0)
(-0.00228572 0.000975597 0)
(-0.00287806 0.00108605 0)
(-0.00352591 0.00118522 0)
(-0.0042232 0.00127244 0)
(-0.00496358 0.00134735 0)
(-0.00574046 0.00140978 0)
(-0.00654721 0.00145973 0)
(-0.00737717 0.00149736 0)
(-0.00822376 0.00152288 0)
(-0.00908051 0.0015366 0)
(-0.00994109 0.0015389 0)
(-0.0107994 0.00153017 0)
(-0.0116494 0.00151085 0)
(-0.0124856 0.00148143 0)
(-0.0133024 0.00144237 0)
(-0.0140946 0.00139418 0)
(-0.0148574 0.00133739 0)
(-0.0155862 0.0012725 0)
(-0.0162765 0.00120006 0)
(-0.0169243 0.0011206 0)
(-0.017526 0.00103467 0)
(-0.018078 0.000942817 0)
(-0.0185772 0.000845601 0)
(-0.0190208 0.000743583 0)
(-0.0194062 0.000637334 0)
(-0.0197314 0.000527432 0)
(-0.0199943 0.000414462 0)
(-0.0201936 0.000299017 0)
(-0.020328 0.0001817 0)
(-0.0203966 6.31238e-05 0)
(-0.0203989 -5.60897e-05 0)
(-0.0203349 -0.000175309 0)
(-0.0202046 -0.000293892 0)
(-0.0200086 -0.000411187 0)
(-0.0197478 -0.000526536 0)
(-0.0194236 -0.000639269 0)
(-0.0190376 -0.000748713 0)
(-0.0185918 -0.000854188 0)
(-0.0180886 -0.000955011 0)
(-0.0175308 -0.0010505 0)
(-0.0169216 -0.00113997 0)
(-0.0162645 -0.00122274 0)
(-0.0155633 -0.00129815 0)
(-0.0148224 -0.00136554 0)
(-0.0140463 -0.00142427 0)
(-0.0132399 -0.00147371 0)
(-0.0124086 -0.00151328 0)
(-0.0115579 -0.00154241 0)
(-0.0106937 -0.00156058 0)
(-0.009822 -0.0015673 0)
(-0.00894924 -0.00156216 0)
(-0.00808194 -0.00154478 0)
(-0.0072268 -0.00151488 0)
(-0.00639062 -0.00147226 0)
(-0.00558027 -0.00141681 0)
(-0.00480259 -0.00134857 0)
(-0.00406435 -0.00126772 0)
(-0.00337213 -0.00117462 0)
(-0.0027322 -0.00106989 0)
(-0.00215041 -0.00095443 0)
(-0.00163202 -0.000829554 0)
(-0.00118144 -0.000697075 0)
(-0.000802014 -0.00055949 0)
(-0.000495644 -0.000420194 0)
(-0.00026239 -0.000283785 0)
(-9.99304e-05 -0.000156457 0)
(-2.91645e-06 -4.65121e-05 0)
(3.77535e-05 3.50241e-05 0)
(3.59477e-05 7.37013e-05 0)
(1.02155e-05 5.10835e-05 0)
(-5.78555e-07 -5.70436e-05 0)
(-1.14653e-05 -5.67899e-05 0)
(-6.474e-05 3.29735e-05 0)
(-0.00018046 0.000184487 0)
(-0.000373552 0.000376146 0)
(-0.000653516 0.000591429 0)
(-0.00102557 0.000817838 0)
(-0.00149145 0.00104602 0)
(-0.00205011 0.00126902 0)
(-0.00269839 0.00148176 0)
(-0.00343141 0.00168054 0)
(-0.00424307 0.00186275 0)
(-0.00512634 0.00202659 0)
(-0.00607348 0.00217085 0)
(-0.00707634 0.00229485 0)
(-0.00812643 0.00239822 0)
(-0.00921514 0.00248092 0)
(-0.0103338 0.0025431 0)
(-0.0114738 0.0025851 0)
(-0.0126267 0.00260736 0)
(-0.013784 0.00261047 0)
(-0.0149377 0.00259507 0)
(-0.01608 0.00256186 0)
(-0.0172033 0.00251162 0)
(-0.0183003 0.00244513 0)
(-0.0193642 0.00236324 0)
(-0.0203884 0.00226679 0)
(-0.0213667 0.00215666 0)
(-0.0222933 0.00203374 0)
(-0.0231628 0.00189895 0)
(-0.0239702 0.0017532 0)
(-0.0247108 0.00159742 0)
(-0.0253805 0.00143255 0)
(-0.0259755 0.00125955 0)
(-0.0264924 0.0010794 0)
(-0.0269284 0.00089306 0)
(-0.0272808 0.000701537 0)
(-0.0275477 0.000505837 0)
(-0.0277275 0.000306986 0)
(-0.027819 0.000106023 0)
(-0.0278216 -9.59956e-05 0)
(-0.027735 -0.000297996 0)
(-0.0275597 -0.000498891 0)
(-0.0272962 -0.000697577 0)
(-0.0269459 -0.000892936 0)
(-0.0265105 -0.00108384 0)
(-0.0259922 -0.00126915 0)
(-0.0253938 -0.00144771 0)
(-0.0247185 -0.00161838 0)
(-0.02397 -0.00178001 0)
(-0.0231526 -0.00193144 0)
(-0.022271 -0.00207155 0)
(-0.0213303 -0.00219921 0)
(-0.0203363 -0.00231333 0)
(-0.019295 -0.00241283 0)
(-0.0182132 -0.00249668 0)
(-0.0170976 -0.00256391 0)
(-0.0159559 -0.00261358 0)
(-0.0147956 -0.00264483 0)
(-0.0136249 -0.00265689 0)
(-0.0124522 -0.00264907 0)
(-0.0112861 -0.00262079 0)
(-0.0101354 -0.00257162 0)
(-0.00900898 -0.00250125 0)
(-0.00791584 -0.00240958 0)
(-0.00686489 -0.0022967 0)
(-0.00586488 -0.002163 0)
(-0.00492431 -0.00200915 0)
(-0.00405123 -0.00183623 0)
(-0.0032531 -0.00164583 0)
(-0.00253656 -0.00144015 0)
(-0.00190718 -0.0012222 0)
(-0.00136911 -0.000996047 0)
(-0.00092474 -0.000767099 0)
(-0.000574201 -0.000542534 0)
(-0.000314809 -0.000331821 0)
(-0.000140403 -0.000147379 0)
(-4.06276e-05 -5.38032e-06 0)
(9.23364e-08 7.33201e-05 0)
(2.15832e-06 6.22612e-05 0)
(-1.32995e-05 -5.15935e-05 0)
(-6.54932e-05 -1.13811e-05 0)
(-0.000177662 0.000143032 0)
(-0.000370094 0.000377229 0)
(-0.000657954 0.000663856 0)
(-0.00105081 0.000981532 0)
(-0.00155381 0.00131373 0)
(-0.00216842 0.00164782 0)
(-0.00289315 0.00197422 0)
(-0.00372414 0.00228576 0)
(-0.00465564 0.00257714 0)
(-0.00568046 0.00284451 0)
(-0.00679029 0.00308514 0)
(-0.00797601 0.00329722 0)
(-0.00922791 0.00347958 0)
(-0.0105359 0.00363161 0)
(-0.0118897 0.00375313 0)
(-0.0132788 0.00384429 0)
(-0.0146929 0.00390549 0)
(-0.0161217 0.00393735 0)
(-0.0175552 0.00394066 0)
(-0.0189833 0.00391633 0)
(-0.0203967 0.00386537 0)
(-0.0217861 0.0037889 0)
(-0.0231425 0.00368807 0)
(-0.0244577 0.00356412 0)
(-0.0257235 0.00341831 0)
(-0.0269323 0.00325193 0)
(-0.0280771 0.00306632 0)
(-0.0291511 0.00286284 0)
(-0.0301483 0.00264285 0)
(-0.0310629 0.00240778 0)
(-0.0318898 0.00215902 0)
(-0.0326242 0.00189803 0)
(-0.0332622 0.00162626 0)
(-0.0338001 0.0013452 0)
(-0.0342348 0.00105634 0)
(-0.0345639 0.000761216 0)
(-0.0347854 0.000461369 0)
(-0.0348978 0.000158373 0)
(-0.0349005 -0.000146179 0)
(-0.0347931 -0.000450668 0)
(-0.0345761 -0.000753454 0)
(-0.0342503 -0.00105287 0)
(-0.0338174 -0.00134725 0)
(-0.0332794 -0.00163487 0)
(-0.0326392 -0.00191404 0)
(-0.0319001 -0.00218303 0)
(-0.0310662 -0.00244011 0)
(-0.0301419 -0.00268357 0)
(-0.0291325 -0.00291169 0)
(-0.0280439 -0.00312277 0)
(-0.0268823 -0.00331515 0)
(-0.0256548 -0.00348719 0)
(-0.0243688 -0.0036373 0)
(-0.0230324 -0.00376397 0)
(-0.0216541 -0.00386575 0)
(-0.020243 -0.00394126 0)
(-0.0188085 -0.00398927 0)
(-0.0173605 -0.00400864 0)
(-0.0159091 -0.0039984 0)
(-0.0144647 -0.00395772 0)
(-0.0130381 -0.00388601 0)
(-0.0116399 -0.0037829 0)
(-0.010281 -0.00364829 0)
(-0.00897208 -0.00348241 0)
(-0.00772359 -0.00328589 0)
(-0.00654565 -0.00305984 0)
(-0.00544786 -0.00280594 0)
(-0.00443904 -0.00252659 0)
(-0.00352706 -0.00222507 0)
(-0.00271847 -0.00190581 0)
(-0.00201824 -0.00157461 0)
(-0.00142932 -0.00123912 0)
(-0.000952177 -0.000909244 0)
(-0.00058424 -0.000597798 0)
(-0.000319264 -0.000321245 0)
(-0.00014665 -0.000100583 0)
(-5.03966e-05 3.76467e-05 0)
(-9.67212e-06 6.03909e-05 0)
(-2.8275e-05 -2.96428e-05 0)
(-0.00012829 7.78932e-05 0)
(-0.00030746 0.000319881 0)
(-0.000585491 0.00065685 0)
(-0.000976913 0.00105669 0)
(-0.00149059 0.00149377 0)
(-0.00213099 0.00194785 0)
(-0.00289888 0.00240314 0)
(-0.00379203 0.00284746 0)
(-0.00480576 0.00327148 0)
(-0.00593338 0.00366821 0)
(-0.00716669 0.00403244 0)
(-0.00849621 0.00436044 0)
(-0.00991157 0.00464961 0)
(-0.0114017 0.00489828 0)
(-0.0129552 0.00510549 0)
(-0.0145601 0.00527088 0)
(-0.0162046 0.00539455 0)
(-0.0178767 0.00547696 0)
(-0.0195646 0.00551888 0)
(-0.0212567 0.00552132 0)
(-0.0229414 0.00548547 0)
(-0.0246078 0.00541271 0)
(-0.0262451 0.0053045 0)
(-0.0278432 0.00516244 0)
(-0.029392 0.0049882 0)
(-0.0308823 0.0047835 0)
(-0.0323052 0.00455015 0)
(-0.0336524 0.00428998 0)
(-0.0349161 0.00400488 0)
(-0.0360892 0.00369675 0)
(-0.0371649 0.00336756 0)
(-0.0381373 0.00301927 0)
(-0.0390009 0.00265391 0)
(-0.0397509 0.00227352 0)
(-0.0403831 0.00188016 0)
(-0.0408939 0.00147594 0)
(-0.0412805 0.00106299 0)
(-0.0415404 0.000643487 0)
(-0.0416722 0.000219619 0)
(-0.0416749 -0.000206381 0)
(-0.0415482 -0.00063225 0)
(-0.0412926 -0.00105569 0)
(-0.0409092 -0.00147439 0)
(-0.0403998 -0.001886 0)
(-0.039767 -0.00228814 0)
(-0.039014 -0.00267844 0)
(-0.0381448 -0.0030545 0)
(-0.037164 -0.00341391 0)
(-0.036077 -0.0037543 0)
(-0.0348899 -0.00407328 0)
(-0.0336095 -0.00436851 0)
(-0.0322432 -0.00463768 0)
(-0.0307991 -0.00487853 0)
(-0.0292859 -0.00508889 0)
(-0.0277131 -0.00526667 0)
(-0.0260905 -0.00540987 0)
(-0.0244286 -0.00551665 0)
(-0.0227384 -0.00558531 0)
(-0.0210313 -0.00561433 0)
(-0.019319 -0.0056024 0)
(-0.0176135 -0.00554848 0)
(-0.0159273 -0.00545178 0)
(-0.0142725 -0.00531186 0)
(-0.0126617 -0.00512869 0)
(-0.0111071 -0.00490268 0)
(-0.00962068 -0.00463479 0)
(-0.00821399 -0.00432662 0)
(-0.00689796 -0.00398057 0)
(-0.00568266 -0.00359997 0)
(-0.00457706 -0.00318933 0)
(-0.00358871 -0.00275459 0)
(-0.00272343 -0.00230346 0)
(-0.0019849 -0.00184585 0)
(-0.00137423 -0.00139444 0)
(-0.000889401 -0.00096527 0)
(-0.000524706 -0.000578579 0)
(-0.00027007 -0.00025965 0)
(-0.000109928 -3.97836e-05 0)
(-2.38279e-05 4.28861e-05 0)
(-4.44852e-05 1.02049e-05 0)
(-0.000195926 0.000214821 0)
(-0.000446842 0.000569145 0)
(-0.000815953 0.00103009 0)
(-0.00131661 0.00156182 0)
(-0.00195642 0.0021351 0)
(-0.00273867 0.00272645 0)
(-0.00366306 0.00331718 0)
(-0.00472633 0.0038926 0)
(-0.00592278 0.00444132 0)
(-0.00724473 0.0049546 0)
(-0.00868289 0.00542585 0)
(-0.0102267 0.00585026 0)
(-0.0118646 0.0062244 0)
(-0.0135844 0.00654601 0)
(-0.0153732 0.00681375 0)
(-0.0172179 0.00702702 0)
(-0.0191054 0.00718583 0)
(-0.0210221 0.00729069 0)
(-0.022955 0.00734252 0)
(-0.0248909 0.00734254 0)
(-0.0268172 0.00729227 0)
(-0.0287213 0.00719343 0)
(-0.0305913 0.0070479 0)
(-0.0324155 0.00685775 0)
(-0.034183 0.00662512 0)
(-0.0358831 0.00635228 0)
(-0.0375059 0.00604158 0)
(-0.0390419 0.00569543 0)
(-0.0404825 0.00531629 0)
(-0.0418194 0.0049067 0)
(-0.0430452 0.00446924 0)
(-0.0441531 0.00400651 0)
(-0.0451368 0.0035212 0)
(-0.045991 0.00301599 0)
(-0.0467109 0.00249365 0)
(-0.0472925 0.00195694 0)
(-0.0477325 0.00140872 0)
(-0.0480283 0.000851847 0)
(-0.0481781 0.00028924 0)
(-0.0481808 -0.000276143 0)
(-0.0480363 -0.000841303 0)
(-0.047745 -0.0014032 0)
(-0.0473081 -0.00195877 0)
(-0.0467278 -0.00250489 0)
(-0.046007 -0.00303845 0)
(-0.0451493 -0.00355629 0)
(-0.0441592 -0.00405525 0)
(-0.0430419 -0.00453217 0)
(-0.0418037 -0.00498389 0)
(-0.0404512 -0.0054073 0)
(-0.0389923 -0.00579932 0)
(-0.0374352 -0.0061569 0)
(-0.0357891 -0.00647711 0)
(-0.0340638 -0.0067571 0)
(-0.03227 -0.00699413 0)
(-0.0304187 -0.00718563 0)
(-0.0285217 -0.0073292 0)
(-0.0265914 -0.00742265 0)
(-0.0246404 -0.00746404 0)
(-0.0226821 -0.00745171 0)
(-0.0207298 -0.00738435 0)
(-0.0187972 -0.00726101 0)
(-0.0168983 -0.00708121 0)
(-0.0150468 -0.00684498 0)
(-0.0132564 -0.00655295 0)
(-0.0115404 -0.00620647 0)
(-0.00991165 -0.00580771 0)
(-0.00838236 -0.00535987 0)
(-0.00696374 -0.00486729 0)
(-0.00566584 -0.00433579 0)
(-0.00449725 -0.00377287 0)
(-0.00346474 -0.00318819 0)
(-0.00257293 -0.00259393 0)
(-0.00182385 -0.0020054 0)
(-0.00121644 -0.00144168 0)
(-0.000746024 -0.000926373 0)
(-0.000403594 -0.000488415 0)
(-0.000174568 -0.000162918 0)
(-3.92874e-05 8.27697e-06 0)
(-6.12487e-05 6.85759e-05 0)
(-0.00026575 0.000401365 0)
(-0.000590796 0.000894009 0)
(-0.00105398 0.00150099 0)
(-0.00166716 0.00218367 0)
(-0.00243632 0.00290993 0)
(-0.00336321 0.00365349 0)
(-0.00444612 0.00439312 0)
(-0.00568051 0.00511186 0)
(-0.00705948 0.00579631 0)
(-0.00857423 0.00643607 0)
(-0.0102143 0.00702319 0)
(-0.0119681 0.00755175 0)
(-0.013823 0.00801747 0)
(-0.0157654 0.00841747 0)
(-0.0177814 0.00874997 0)
(-0.0198567 0.00901413 0)
(-0.0219768 0.00920986 0)
(-0.0241271 0.00933769 0)
(-0.0262932 0.00939867 0)
(-0.0284608 0.00939427 0)
(-0.0306159 0.00932632 0)
(-0.0327449 0.00919692 0)
(-0.0348345 0.00900841 0)
(-0.036872 0.00876333 0)
(-0.0388453 0.00846437 0)
(-0.0407426 0.00811438 0)
(-0.0425532 0.0077163 0)
(-0.0442665 0.00727318 0)
(-0.0458728 0.00678813 0)
(-0.0473633 0.00626438 0)
(-0.0487297 0.00570517 0)
(-0.0499644 0.00511385 0)
(-0.0510606 0.0044938 0)
(-0.0520123 0.00384846 0)
(-0.0528142 0.00318134 0)
(-0.0534621 0.00249598 0)
(-0.0539521 0.00179599 0)
(-0.0542815 0.00108503 0)
(-0.0544483 0.00036682 0)
(-0.0544514 -0.000354872 0)
(-0.0542904 -0.00107623 0)
(-0.0539659 -0.00179339 0)
(-0.0534793 -0.00250243 0)
(-0.0528331 -0.00319943 0)
(-0.0520302 -0.00388038 0)
(-0.0510749 -0.0045413 0)
(-0.049972 -0.00517818 0)
(-0.0487274 -0.00578701 0)
(-0.0473478 -0.0063638 0)
(-0.0458407 -0.0069046 0)
(-0.0442146 -0.00740551 0)
(-0.0424787 -0.00786271 0)
(-0.0406432 -0.00827248 0)
(-0.0387187 -0.00863125 0)
(-0.036717 -0.00893558 0)
(-0.0346502 -0.00918226 0)
(-0.0325314 -0.00936828 0)
(-0.0303739 -0.00949092 0)
(-0.0281919 -0.0095478 0)
(-0.0259997 -0.00953687 0)
(-0.0238122 -0.00945655 0)
(-0.0216443 -0.00930573 0)
(-0.0195112 -0.00908387 0)
(-0.017428 -0.0087911 0)
(-0.0154096 -0.00842831 0)
(-0.0134705 -0.00799727 0)
(-0.011625 -0.00750076 0)
(-0.00988628 -0.00694281 0)
(-0.00826675 -0.00632885 0)
(-0.00677758 -0.00566599 0)
(-0.00542845 -0.00496336 0)
(-0.00422723 -0.00423248 0)
(-0.00317967 -0.00348774 0)
(-0.00228899 -0.00274691 0)
(-0.00155543 -0.0020318 0)
(-0.000975672 -0.00136894 0)
(-0.000542174 -0.000790285 0)
(-0.000241643 -0.000333882 0)
(-5.53615e-05 -4.41321e-05 0)
(-7.81242e-05 0.000145595 0)
(-0.000336027 0.000638239 0)
(-0.000735974 0.00129591 0)
(-0.00129444 0.00207161 0)
(-0.00202167 0.00292466 0)
(-0.00292178 0.00382073 0)
(-0.00399474 0.00473124 0)
(-0.00523718 0.00563275 0)
(-0.00664306 0.00650628 0)
(-0.00820412 0.00733662 0)
(-0.00991027 0.0081118 0)
(-0.0117499 0.00882257 0)
(-0.0137102 0.00946193 0)
(-0.0157773 0.0100248 0)
(-0.0179367 0.0105076 0)
(-0.0201733 0.0109081 0)
(-0.0224717 0.0112253 0)
(-0.0248161 0.011459 0)
(-0.0271909 0.0116096 0)
(-0.0295806 0.0116784 0)
(-0.0319697 0.0116672 0)
(-0.0343431 0.0115779 0)
(-0.0366861 0.0114133 0)
(-0.0389844 0.011176 0)
(-0.0412242 0.0108692 0)
(-0.0433924 0.0104961 0)
(-0.0454765 0.0100602 0)
(-0.0474644 0.009565 0)
(-0.049345 0.00901434 0)
(-0.0511078 0.00841201 0)
(-0.0527431 0.00776196 0)
(-0.0542419 0.00706819 0)
(-0.055596 0.00633483 0)
(-0.0567981 0.00556603 0)
(-0.0578416 0.00476606 0)
(-0.0587209 0.00393923 0)
(-0.0594312 0.00308993 0)
(-0.0599684 0.00222261 0)
(-0.0603297 0.0013418 0)
(-0.0605128 0.000452085 0)
(-0.0605164 -0.000441882 0)
(-0.0603403 -0.00133539 0)
(-0.0599851 -0.00222366 0)
(-0.0594522 -0.00310189 0)
(-0.0587444 -0.00396519 0)
(-0.0578649 -0.00480867 0)
(-0.0568181 -0.00562741 0)
(-0.0556096 -0.00641648 0)
(-0.0542455 -0.00717093 0)
(-0.0527331 -0.00788588 0)
(-0.0510807 -0.00855648 0)
(-0.0492973 -0.00917793 0)
(-0.047393 -0.00974557 0)
(-0.0453786 -0.0102548 0)
(-0.0432659 -0.0107014 0)
(-0.0410673 -0.011081 0)
(-0.0387962 -0.0113898 0)
(-0.0364665 -0.0116241 0)
(-0.0340928 -0.0117806 0)
(-0.0316901 -0.0118564 0)
(-0.0292742 -0.0118492 0)
(-0.0268609 -0.0117571 0)
(-0.0244665 -0.0115786 0)
(-0.0221072 -0.0113134 0)
(-0.0197994 -0.0109616 0)
(-0.0175592 -0.0105243 0)
(-0.0154023 -0.0100037 0)
(-0.013344 -0.00940339 0)
(-0.0113988 -0.00872811 0)
(-0.00958019 -0.00798439 0)
(-0.00790059 -0.00718067 0)
(-0.00637084 -0.00632762 0)
(-0.00500005 -0.00543859 0)
(-0.00379527 -0.00452999 0)
(-0.00276113 -0.00362184 0)
(-0.00189943 -0.00273839 0)
(-0.00120848 -0.00190862 0)
(-0.000682424 -0.00116693 0)
(-0.000309392 -0.000553545 0)
(-7.16009e-05 -0.000114527 0)
(-9.48375e-05 0.000241073 0)
(-0.000405671 0.000925329 0)
(-0.000880225 0.00177509 0)
(-0.00153398 0.00274256 0)
(-0.00237551 0.00378574 0)
(-0.00340698 0.00486858 0)
(-0.0046264 0.00596068 0)
(-0.00602856 0.00703676 0)
(-0.00760575 0.00807608 0)
(-0.00934819 0.00906184 0)
(-0.0112444 0.00998066 0)
(-0.0132814 0.010822 0)
(-0.0154453 0.011578 0)
(-0.017721 0.0122426 0)
(-0.0200929 0.0128118 0)
(-0.0225447 0.0132829 0)
(-0.0250599 0.0136545 0)
(-0.0276219 0.0139263 0)
(-0.0302138 0.014099 0)
(-0.0328191 0.0141739 0)
(-0.0354212 0.0141529 0)
(-0.0380041 0.0140385 0)
(-0.0405521 0.0138337 0)
(-0.04305 0.0135418 0)
(-0.045483 0.0131664 0)
(-0.047837 0.0127114 0)
(-0.0500987 0.012181 0)
(-0.0522554 0.0115793 0)
(-0.0542949 0.0109109 0)
(-0.0562062 0.0101804 0)
(-0.0579788 0.00939239 0)
(-0.0596031 0.00855184 0)
(-0.0610704 0.00766363 0)
(-0.0623729 0.00673279 0)
(-0.0635034 0.00576444 0)
(-0.0644561 0.00476377 0)
(-0.0652256 0.00373608 0)
(-0.0658079 0.00268672 0)
(-0.0661996 0.00162116 0)
(-0.0663984 0.000544911 0)
(-0.0664031 -0.000536415 0)
(-0.0662132 -0.00161715 0)
(-0.0658294 -0.00269154 0)
(-0.0652534 -0.00375379 0)
(-0.0644878 -0.00479805 0)
(-0.0635364 -0.00581842 0)
(-0.0624038 -0.00680899 0)
(-0.0610958 -0.00776382 0)
(-0.0596192 -0.00867702 0)
(-0.0579815 -0.00954269 0)
(-0.0561917 -0.010355 0)
(-0.0542595 -0.0111083 0)
(-0.0521955 -0.0117969 0)
(-0.0500113 -0.0124154 0)
(-0.0477196 -0.0129585 0)
(-0.0453335 -0.0134214 0)
(-0.0428673 -0.0137992 0)
(-0.0403359 -0.0140878 0)
(-0.0377548 -0.0142832 0)
(-0.0351402 -0.014382 0)
(-0.0325087 -0.0143813 0)
(-0.0298773 -0.0142789 0)
(-0.0272634 -0.0140735 0)
(-0.0246843 -0.0137642 0)
(-0.0221575 -0.0133516 0)
(-0.0197002 -0.0128369 0)
(-0.0173294 -0.0122228 0)
(-0.0150614 -0.0115135 0)
(-0.012912 -0.0107145 0)
(-0.0108959 -0.00983346 0)
(-0.0090266 -0.00888007 0)
(-0.00731634 -0.0078665 0)
(-0.0057756 -0.00680776 0)
(-0.0044129 -0.00572215 0)
(-0.00323447 -0.00463171 0)
(-0.00224381 -0.00356275 0)
(-0.00144107 -0.00254636 0)
(-0.000822169 -0.00161883 0)
(-0.000376709 -0.000821947 0)
(-8.77259e-05 -0.000202775 0)
(-0.000111229 0.000354639 0)
(-0.00047404 0.001262 0)
(-0.00102224 0.00233099 0)
(-0.00177047 0.00351353 0)
(-0.0027257 0.00476679 0)
(-0.00388808 0.00605349 0)
(-0.00525358 0.00734184 0)
(-0.00681504 0.00860504 0)
(-0.00856292 0.00982089 0)
(-0.0104858 0.0109712 0)
(-0.0125707 0.0120413 0)
(-0.0148033 0.0130197 0)
(-0.0171683 0.0138974 0)
(-0.0196495 0.0146678 0)
(-0.0222301 0.0153262 0)
(-0.0248928 0.0158696 0)
(-0.02762 0.0162964 0)
(-0.0303939 0.0166062 0)
(-0.0331968 0.0167996 0)
(-0.0360111 0.0168782 0)
(-0.0388194 0.0168443 0)
(-0.0416046 0.0167006 0)
(-0.0443502 0.0164505 0)
(-0.0470399 0.016098 0)
(-0.0496584 0.0156472 0)
(-0.0521907 0.0151027 0)
(-0.0546225 0.0144693 0)
(-0.0569405 0.0137519 0)
(-0.059132 0.0129559 0)
(-0.061185 0.0120866 0)
(-0.0630887 0.0111495 0)
(-0.0648328 0.0101505 0)
(-0.066408 0.00909521 0)
(-0.0678062 0.00798966 0)
(-0.0690198 0.00683984 0)
(-0.0700425 0.00565192 0)
(-0.0708688 0.00443212 0)
(-0.0714943 0.00318679 0)
(-0.0719154 0.00192235 0)
(-0.0721297 0.00064533 0)
(-0.0721359 -0.000637653 0)
(-0.0719335 -0.0019199 0)
(-0.0715232 -0.00319465 0)
(-0.0709068 -0.00445504 0)
(-0.0700871 -0.00569418 0)
(-0.069068 -0.00690513 0)
(-0.0678545 -0.0080809 0)
(-0.0664525 -0.00921453 0)
(-0.0648692 -0.010299 0)
(-0.0631128 -0.0113275 0)
(-0.0611925 -0.0122931 0)
(-0.0591187 -0.0131892 0)
(-0.0569025 -0.014009 0)
(-0.0545562 -0.0147463 0)
(-0.0520932 -0.0153949 0)
(-0.0495274 -0.015949 0)
(-0.0468739 -0.0164031 0)
(-0.0441483 -0.0167521 0)
(-0.0413672 -0.0169916 0)
(-0.0385476 -0.0171175 0)
(-0.0357071 -0.0171266 0)
(-0.0328638 -0.0170163 0)
(-0.0300359 -0.016785 0)
(-0.027242 -0.0164318 0)
(-0.0245005 -0.0159573 0)
(-0.0218299 -0.015363 0)
(-0.0192481 -0.0146521 0)
(-0.0167729 -0.0138292 0)
(-0.0144209 -0.0129008 0)
(-0.0122084 -0.0118755 0)
(-0.0101501 -0.0107641 0)
(-0.0082596 -0.00958029 0)
(-0.00654889 -0.00834053 0)
(-0.00502812 -0.00706483 0)
(-0.00370526 -0.00577703 0)
(-0.00258564 -0.00450521 0)
(-0.00167134 -0.00328215 0)
(-0.000960107 -0.00214566 0)
(-0.000442949 -0.0011386 0)
(-0.000103575 -0.000308556 0)
(-0.000127217 0.000485826 0)
(-0.000540803 0.00164732 0)
(-0.00116132 0.00296255 0)
(-0.00200273 0.00438354 0)
(-0.00307048 0.00586699 0)
(-0.00436277 0.00737481 0)
(-0.00587345 0.00887412 0)
(-0.00759332 0.010337 0)
(-0.00951097 0.0117399 0)
(-0.0116132 0.0130637 0)
(-0.0138854 0.0142924 0)
(-0.0163119 0.0154137 0)
(-0.0188759 0.0164178 0)
(-0.0215601 0.0172974 0)
(-0.0243463 0.0180474 0)
(-0.0272163 0.0186644 0)
(-0.0301514 0.0191466 0)
(-0.0331327 0.0194935 0)
(-0.0361417 0.019706 0)
(-0.0391597 0.0197858 0)
(-0.0421684 0.0197352 0)
(-0.04515 0.0195578 0)
(-0.0480869 0.0192572 0)
(-0.0509623 0.018838 0)
(-0.0537599 0.018305 0)
(-0.056464 0.0176633 0)
(-0.0590597 0.0169185 0)
(-0.061533 0.0160765 0)
(-0.0638704 0.0151432 0)
(-0.0660597 0.0141249 0)
(-0.0680891 0.0130281 0)
(-0.0699481 0.0118593 0)
(-0.071627 0.0106252 0)
(-0.0731171 0.00933285 0)
(-0.0744105 0.00798911 0)
(-0.0755006 0.00660114 0)
(-0.0763816 0.00517618 0)
(-0.0770488 0.0037216 0)
(-0.0774986 0.00224485 0)
(-0.0777284 0.000753524 0)
(-0.0777367 -0.000744717 0)
(-0.0775231 -0.0022421 0)
(-0.0770883 -0.00373076 0)
(-0.0764341 -0.00520275 0)
(-0.0755635 -0.00665009 0)
(-0.0744805 -0.00806471 0)
(-0.0731902 -0.00943854 0)
(-0.0716991 -0.0107635 0)
(-0.0700144 -0.0120315 0)
(-0.0681449 -0.0132345 0)
(-0.0661001 -0.0143647 0)
(-0.0638908 -0.0154142 0)
(-0.0615289 -0.0163754 0)
(-0.0590271 -0.0172409 0)
(-0.0563993 -0.0180037 0)
(-0.0536603 -0.0186571 0)
(-0.0508258 -0.0191947 0)
(-0.0479124 -0.0196106 0)
(-0.0449372 -0.0198998 0)
(-0.0419182 -0.0200575 0)
(-0.038874 -0.0200801 0)
(-0.0358235 -0.0199645 0)
(-0.0327861 -0.0197089 0)
(-0.0297811 -0.0193125 0)
(-0.0268283 -0.0187756 0)
(-0.0239471 -0.0181002 0)
(-0.0211567 -0.0172896 0)
(-0.0184758 -0.0163492 0)
(-0.0159227 -0.0152862 0)
(-0.0135146 -0.01411 0)
(-0.0112678 -0.0128326 0)
(-0.00919738 -0.011469 0)
(-0.00731694 -0.010037 0)
(-0.00563832 -0.00855806 0)
(-0.00417134 -0.00705767 0)
(-0.00292329 -0.00556539 0)
(-0.00189817 -0.0041154 0)
(-0.00109555 -0.00274664 0)
(-0.000507789 -0.00150274 0)
(-0.000119068 -0.000431457 0)
(-0.000142772 0.000634135 0)
(-0.000605837 0.00208022 0)
(-0.00129717 0.00366847 0)
(-0.0022302 0.00535125 0)
(-0.00340901 0.00708508 0)
(-0.00482983 0.00883138 0)
(-0.00648444 0.0105565 0)
(-0.00836157 0.0122315 0)
(-0.0104478 0.0138321 0)
(-0.0127282 0.015338 0)
(-0.0151864 0.0167325 0)
(-0.0178052 0.0180024 0)
(-0.0205664 0.0191372 0)
(-0.0234513 0.0201291 0)
(-0.0264407 0.0209726 0)
(-0.0295151 0.0216639 0)
(-0.0326548 0.0222013 0)
(-0.0358399 0.0225843 0)
(-0.0390509 0.0228138 0)
(-0.0422682 0.0228916 0)
(-0.0454727 0.0228207 0)
(-0.0486458 0.0226048 0)
(-0.051769 0.0222483 0)
(-0.0548248 0.0217562 0)
(-0.0577962 0.021134 0)
(-0.0606669 0.0203876 0)
(-0.0634213 0.0195233 0)
(-0.0660447 0.0185478 0)
(-0.0685232 0.0174678 0)
(-0.070844 0.0162907 0)
(-0.0729949 0.0150236 0)
(-0.0749648 0.0136742 0)
(-0.0767437 0.0122501 0)
(-0.0783225 0.0107592 0)
(-0.0796931 0.00920961 0)
(-0.0808484 0.00760935 0)
(-0.0817824 0.00596677 0)
(-0.0824904 0.00429026 0)
(-0.0829684 0.00258839 0)
(-0.0832138 0.000869821 0)
(-0.0832249 -0.000856671 0)
(-0.0830014 -0.00258219 0)
(-0.082544 -0.00429774 0)
(-0.0818545 -0.00599426 0)
(-0.0809358 -0.00766257 0)
(-0.0797923 -0.00929348 0)
(-0.0784293 -0.0108778 0)
(-0.0768532 -0.0124061 0)
(-0.0750719 -0.0138694 0)
(-0.0730942 -0.0152584 0)
(-0.07093 -0.0165641 0)
(-0.0685907 -0.0177776 0)
(-0.0660884 -0.0188902 0)
(-0.0634366 -0.0198935 0)
(-0.0606496 -0.0207794 0)
(-0.0577429 -0.0215402 0)
(-0.0547328 -0.0221687 0)
(-0.0516365 -0.0226582 0)
(-0.0484721 -0.0230028 0)
(-0.0452583 -0.0231974 0)
(-0.0420145 -0.0232375 0)
(-0.0387606 -0.0231198 0)
(-0.0355169 -0.0228421 0)
(-0.0323039 -0.0224034 0)
(-0.0291421 -0.0218042 0)
(-0.0260523 -0.0210464 0)
(-0.0230548 -0.0201339 0)
(-0.0201696 -0.0190724 0)
(-0.0174161 -0.0178699 0)
(-0.014813 -0.0165365 0)
(-0.0123782 -0.0150853 0)
(-0.0101282 -0.0135324 0)
(-0.00807831 -0.0118968 0)
(-0.00624226 -0.0102015 0)
(-0.00463174 -0.00847312 0)
(-0.00325602 -0.00674257 0)
(-0.00212108 -0.00504518 0)
(-0.00122827 -0.00342076 0)
(-0.000571127 -0.00191347 0)
(-0.00013418 -0.000571034 0)
(-0.000157901 0.000799068 0)
(-0.000669156 0.00255957 0)
(-0.00142975 0.00444732 0)
(-0.00245277 0.00641514 0)
(-0.00374101 0.0084196 0)
(-0.00528884 0.0104218 0)
(-0.00708597 0.0123876 0)
(-0.00911904 0.0142875 0)
(-0.0113726 0.0160963 0)
(-0.0138299 0.017793 0)
(-0.0164728 0.0193603 0)
(-0.0192824 0.0207842 0)
(-0.0222392 0.0220538 0)
(-0.0253231 0.0231608 0)
(-0.0285136 0.0240993 0)
(-0.03179 0.0248656 0)
(-0.0351316 0.0254577 0)
(-0.0385175 0.0258752 0)
(-0.0419272 0.0261191 0)
(-0.0453403 0.0261918 0)
(-0.0487368 0.0260965 0)
(-0.0520973 0.0258373 0)
(-0.0554027 0.0254193 0)
(-0.0586346 0.024848 0)
(-0.0617754 0.0241296 0)
(-0.0648083 0.0232709 0)
(-0.067717 0.022279 0)
(-0.0704863 0.0211612 0)
(-0.0731019 0.0199254 0)
(-0.0755503 0.0185797 0)
(-0.077819 0.0171323 0)
(-0.0798966 0.0155917 0)
(-0.0817725 0.0139668 0)
(-0.0834375 0.0122662 0)
(-0.084883 0.0104992 0)
(-0.0861019 0.00867493 0)
(-0.0870878 0.00680274 0)
(-0.0878358 0.00489218 0)
(-0.0883418 0.00295289 0)
(-0.0886031 0.000994682 0)
(-0.0886179 -0.00097252 0)
(-0.0883859 -0.00293867 0)
(-0.0879076 -0.00489359 0)
(-0.087185 -0.00682704 0)
(-0.0862211 -0.00872866 0)
(-0.0850202 -0.0105881 0)
(-0.0835879 -0.0123948 0)