/*--------------------------------*- C++ -*----------------------------------*\
| =========                 |                                                 |
| \\      /  F ield         | OpenFOAM: The Open Source CFD Toolbox           |
|  \\    /   O peration     | Version:  4.1                                   |
|   \\  /    A nd           | Web:      www.OpenFOAM.org                      |
|    \\/     M anipulation  |                                                 |
\*---------------------------------------------------------------------------*/
FoamFile
{
    version     2.0;
    format      ascii;
    class       volScalarField;
    location    "0.0026";
    object      p;
}
// * * * * * * * * * * * * * * * * * * * * * * * * * * * * * * * * * * * * * //

dimensions      [1 -1 -2 0 0 0 0];

internalField   nonuniform List<scalar> 
441
(
100000
99999.9
99999.7
100000
100000
99999.6
100000
100000
100000
100001
100001
100001
100001
100001
100001
100001
100000
100001
100001
100001
100001
100000
100000
100000
100000
100000
100000
100000
100000
100000
100000
100001
100000
100000
100000
100000
100001
100000
100001
100000
100001
100000
100000
99999.9
99999.9
99999.9
100000
99999.9
100000
100000
100000
100001
100001
100001
100001
100001
100001
100001
100001
100001
100001
100001
100001
100000
99999.9
99999.9
100000
100000
100000
100000
100000
100000
100000
100000
100000
100001
100001
100001
100001
100001
100001
100001
100001
100001
100000
99999.5
99999.7
99999.6
99999.7
99999.8
99999.9
100000
100000
100000
100000
100001
100001
100001
100001
100001
100001
100001
100001
100001
100001
99998.6
99999.4
99999.1
99999.4
99999.4
99999.6
99999.7
99999.9
100000
100000
100000
100001
100001
100001
100001
100001
100001
100001
100001
100001
100001
99998.2
99998.6
99998.6
99998.8
99999
99999.2
99999.4
99999.6
99999.9
100000
100000
100001
100001
100001
100001
100002
100001
100002
100001
100002
100001
99998.1
99998.3
99998.2
99998.5
99998.6
99998.9
99999.1
99999.4
99999.7
100000
100000
100001
100001
100001
100002
100002
100002
100002
100002
100003
100002
99997.2
99997.3
99997.4
99997.7
99997.9
99998.2
99998.6
99999
99999.4
99999.9
100000
100001
100001
100002
100002
100003
100003
100003
100003
100003
100003
99996.7
99996.7
99996.8
99997.1
99997.3
99997.7
99998.1
99998.7
99999.2
99999.8
100000
100001
100002
100002
100003
100003
100003
100004
100003
100004
100003
99995.3
99995.4
99995.5
99995.9
99996.2
99996.8
99997.3
99998.1
99998.8
99999.6
100000
100001
100002
100003
100003
100004
100004
100005
100005
100005
100006
99994.5
99994.6
99994.7
99995.1
99995.4
99996.1
99996.7
99997.6
99998.4
99999.4
100000
100001
100002
100003
100004
100005
100005
100006
100006
100006
100006
99992.4
99992.6
99992.7
99993.4
99993.8
99994.8
99995.6
99996.8
99997.8
99999.1
100000
100002
100003
100004
100005
100006
100007
100007
100008
100008
100006
99991.4
99991.6
99991.7
99992.4
99992.8
99994
99994.8
99996.1
99997.3
99998.8
100000
100002
100003
100004
100006
100007
100008
100008
100009
100009
100008
99988.1
99988.6
99988.6
99990
99990.5
99992.2
99993.3
99995.1
99996.6
99998.3
100000
100002
100004
100005
100008
100009
100011
100011
100013
100012
100011
99987
99987.6
99987.5
99988.9
99989.4
99991.3
99992.4
99994.4
99996
99998
100000
100002
100004
100006
100008
100009
100012
100012
100014
100014
100011
99981
99982.8
99982.5
99985.4
99986.2
99989.1
99990.6
99993.2
99995.2
99997.5
99999.8
100002
100005
100007
100010
100011
100016
100016
100023
100018
100033
99980.3
99982
99981.4
99984.4
99985.1
99988.2
99989.8
99992.6
99994.7
99997.1
99999.5
100002
100005
100006
100010
100011
100016
100017
100023
100022
100031
99966.9
99974.3
99973.4
99980
99981.2
99985.9
99988
99991.5
99993.9
99996.7
99999.4
100002
100005
100007
100012
100013
100020
100021
100032
100032
100045
99966.3
99974.3
99972.8
99979.1
99980.4
99985.3
99987.5
99991.1
99993.6
99996.4
99999.2
100001
100005
100006
100011
100012
100019
100019
100030
100031
100047
99922.4
99964.5
99964.1
99976.7
99978.4
99984.5
99986.9
99990.9
99993.5
99996.4
99999.2
100001
100005
100007
100012
100013
100022
100023
100043
100049
100101
)
;

boundaryField
{
    movingWall
    {
        type            zeroGradient;
    }
    fixedWalls
    {
        type            zeroGradient;
    }
    frontAndBack
    {
        type            empty;
    }
}


// ************************************************************************* //
