/*--------------------------------*- C++ -*----------------------------------*\
| =========                 |                                                 |
| \\      /  F ield         | OpenFOAM: The Open Source CFD Toolbox           |
|  \\    /   O peration     | Version:  4.1                                   |
|   \\  /    A nd           | Web:      www.OpenFOAM.org                      |
|    \\/     M anipulation  |                                                 |
\*---------------------------------------------------------------------------*/
FoamFile
{
    version     2.0;
    format      ascii;
    class       volVectorField;
    location    "6.75";
    object      U;
}
// * * * * * * * * * * * * * * * * * * * * * * * * * * * * * * * * * * * * * //

dimensions      [0 1 -1 0 0 0 0];

internalField   nonuniform List<vector> 
400
(
(0.000187037 -0.000184182 0)
(-0.000107317 8.75605e-05 0)
(-0.00151366 0.000325244 0)
(-0.00363903 0.00049987 0)
(-0.00625799 0.000584645 0)
(-0.00904634 0.000612581 0)
(-0.0117891 0.000588575 0)
(-0.0142538 0.000516863 0)
(-0.0162233 0.000391638 0)
(-0.0174713 0.000211008 0)
(-0.0177981 -1.9123e-05 0)
(-0.0170684 -0.000278 0)
(-0.0152625 -0.000529824 0)
(-0.0125247 -0.000725863 0)
(-0.00917018 -0.000818321 0)
(-0.00568532 -0.000767973 0)
(-0.00260009 -0.00057566 0)
(-0.000457105 -0.000260406 0)
(0.000512397 6.12593e-05 0)
(0.000303072 0.00028831 0)
(-9.05338e-05 9.81743e-05 0)
(-0.00199592 0.00188167 0)
(-0.00624633 0.00353215 0)
(-0.0119734 0.00471138 0)
(-0.0186949 0.00531323 0)
(-0.0257112 0.00542554 0)
(-0.0324917 0.00508598 0)
(-0.0384745 0.00431345 0)
(-0.0431379 0.00310571 0)
(-0.045977 0.00148977 0)
(-0.0465778 -0.000445307 0)
(-0.0446918 -0.00252102 0)
(-0.0403272 -0.00447087 0)
(-0.0338303 -0.00596872 0)
(-0.0258911 -0.00670059 0)
(-0.0175353 -0.00644243 0)
(-0.00988315 -0.00518778 0)
(-0.00408116 -0.00314967 0)
(-0.000655951 -0.000968785 0)
(0.000164732 0.000544698 0)
(-0.000404128 0.00162928 0)
(-0.00418723 0.00625108 0)
(-0.0113057 0.0101402 0)
(-0.0203356 0.0128101 0)
(-0.0305937 0.0141227 0)
(-0.0411148 0.0142132 0)
(-0.0511543 0.0131551 0)
(-0.0599246 0.0109917 0)
(-0.066701 0.00775295 0)
(-0.0708007 0.00354592 0)
(-0.071677 -0.00137775 0)
(-0.069008 -0.00657557 0)
(-0.0628026 -0.0114218 0)
(-0.0535016 -0.0151732 0)
(-0.0419925 -0.0171151 0)
(-0.0296279 -0.0167393 0)
(-0.0179296 -0.0140019 0)
(-0.00854766 -0.00938602 0)
(-0.00233664 -0.00419827 0)
(-2.24883e-05 -6.85873e-05 0)
(-0.000710933 0.00428008 0)
(-0.00633661 0.0129028 0)
(-0.0162062 0.019588 0)
(-0.0282831 0.0239596 0)
(-0.0416932 0.0259805 0)
(-0.0552623 0.0258731 0)
(-0.0681107 0.023762 0)
(-0.079309 0.019723 0)
(-0.0880076 0.0138316 0)
(-0.0934047 0.00629535 0)
(-0.0948457 -0.00244477 0)
(-0.0919108 -0.0116479 0)
(-0.0845295 -0.0202801 0)
(-0.0731081 -0.0271077 0)
(-0.0585809 -0.0309104 0)
(-0.0425045 -0.0307723 0)
(-0.026749 -0.0264995 0)
(-0.0135418 -0.0187957 0)
(-0.00420689 -0.0096552 0)
(-0.000210766 -0.00156499 0)
(-0.000973118 0.00802381 0)
(-0.00826911 0.0218105 0)
(-0.0206645 0.0318359 0)
(-0.0355202 0.0380878 0)
(-0.0517813 0.0407885 0)
(-0.0681038 0.0403142 0)
(-0.08353 0.0368697 0)
(-0.0970531 0.0305707 0)
(-0.107753 0.021539 0)
(-0.114742 0.0100762 0)
(-0.11725 -0.00319817 0)
(-0.114706 -0.0172523 0)
(-0.106857 -0.0306301 0)
(-0.09393 -0.0415467 0)
(-0.0767561 -0.0481451 0)
(-0.0569883 -0.0489018 0)
(-0.036836 -0.043251 0)
(-0.0192596 -0.031967 0)
(-0.00627683 -0.0177344 0)
(-0.000384133 -0.00403477 0)
(-0.00119755 0.0126919 0)
(-0.00993999 0.0326672 0)
(-0.0245478 0.0465111 0)
(-0.0418461 0.0547926 0)
(-0.0606252 0.0581541 0)
(-0.079414 0.0572074 0)
(-0.097227 0.0522758 0)
(-0.113036 0.0435204 0)
(-0.125898 0.031092 0)
(-0.134867 0.0153476 0)
(-0.139053 -0.00297028 0)
(-0.137686 -0.0225989 0)
(-0.130227 -0.0416961 0)
(-0.116578 -0.0578956 0)
(-0.0972785 -0.0685598 0)
(-0.0739129 -0.0712802 0)
(-0.0489604 -0.06475 0)
(-0.0262605 -0.0495102 0)
(-0.00881841 -0.0288809 0)
(-0.000592577 -0.00759414 0)
(-0.00137586 0.018149 0)
(-0.0112918 0.0451978 0)
(-0.0277155 0.0632863 0)
(-0.0470303 0.0737473 0)
(-0.0679062 0.0777899 0)
(-0.0887913 0.0763461 0)
(-0.108718 0.0699015 0)
(-0.126689 0.0586667 0)
(-0.141791 0.0427945 0)
(-0.153058 0.0226365 0)
(-0.159503 -0.00103174 0)
(-0.160141 -0.0268226 0)
(-0.154085 -0.0525998 0)
(-0.140774 -0.0754422 0)
(-0.120241 -0.0918136 0)
(-0.0937351 -0.098095 0)
(-0.0637881 -0.0917018 0)
(-0.0351529 -0.0723983 0)
(-0.0121557 -0.0439154 0)
(-0.000885097 -0.0125686 0)
(-0.00150362 0.024205 0)
(-0.0122748 0.0590155 0)
(-0.0300332 0.0816868 0)
(-0.0508241 0.0944531 0)
(-0.0732303 0.0992212 0)
(-0.0956669 0.0973255 0)
(-0.117226 0.0894639 0)
(-0.136997 0.0759047 0)
(-0.154155 0.0567746 0)
(-0.167781 0.0323499 0)
(-0.176852 0.00332852 0)
(-0.180214 -0.0289257 0)
(-0.176641 -0.0621452 0)
(-0.165024 -0.0929787 0)
(-0.144683 -0.116975 0)
(-0.11616 -0.129013 0)
(-0.0816117 -0.124549 0)
(-0.0464741 -0.101675 0)
(-0.0166561 -0.0639127 0)
(-0.00132843 -0.0194548 0)
(-0.00157782 0.0306642 0)
(-0.012854 0.0737003 0)
(-0.0313923 0.101173 0)
(-0.0529984 0.116309 0)
(-0.0761929 0.121829 0)
(-0.0994036 0.119549 0)
(-0.12182 0.11044 0)
(-0.142678 0.0948458 0)
(-0.161307 0.0728524 0)
(-0.176923 0.0446014 0)
(-0.188576 0.0106026 0)
(-0.195063 -0.0279752 0)
(-0.194916 -0.0689626 0)
(-0.186505 -0.108833 0)
(-0.168302 -0.142391 0)
(-0.139751 -0.162895 0)
(-0.101995 -0.16314 0)
(-0.0604936 -0.138252 0)
(-0.0226903 -0.0901795 0)
(-0.00200505 -0.0289727 0)
(-0.0016059 0.0373043 0)
(-0.0130498 0.0887661 0)
(-0.0317801 0.121094 0)
(-0.0534403 0.138543 0)
(-0.0765032 0.144761 0)
(-0.0994583 0.142125 0)
(-0.121631 0.131947 0)
(-0.142458 0.114684 0)
(-0.161499 0.0903889 0)
(-0.178208 0.0590375 0)
(-0.191841 0.0208671 0)
(-0.201321 -0.0233115 0)
(-0.205132 -0.0716946 0)
(-0.201288 -0.120961 0)
(-0.187453 -0.165584 0)
(-0.161688 -0.197432 0)
(-0.123414 -0.206171 0)
(-0.0769624 -0.1824 0)
(-0.0305995 -0.124031 0)
(-0.00302978 -0.0420634 0)
(-0.00162272 0.0439787 0)
(-0.0129847 0.103797 0)
(-0.0313482 0.140806 0)
(-0.0522466 0.160301 0)
(-0.0741106 0.166996 0)
(-0.095558 0.163903 0)
(-0.116091 0.152762 0)
(-0.135413 0.134191 0)
(-0.153377 0.108246 0)
(-0.16977 0.0747402 0)
(-0.184189 0.0336018 0)
(-0.195867 -0.0148329 0)
(-0.203498 -0.0693733 0)
(-0.20503 -0.127346 0)
(-0.197588 -0.183536 0)
(-0.177851 -0.229114 0)
(-0.143006 -0.250736 0)
(-0.0947674 -0.233119 0)
(-0.0405924 -0.166434 0)
(-0.00456249 -0.0599014 0)
(-0.00169501 0.0505709 0)
(-0.0129531 0.118378 0)
(-0.0305287 0.159602 0)
(-0.0498673 0.180586 0)
(-0.0693651 0.1873 0)
(-0.0878864 0.183469 0)
(-0.10517 0.17135 0)
(-0.12126 0.151772 0)
(-0.136357 0.124843 0)
(-0.150649 0.0902509 0)
(-0.164166 0.0476322 0)
(-0.176603 -0.00319044 0)
(-0.187108 -0.0617976 0)
(-0.193923 -0.126556 0)
(-0.194119 -0.193298 0)
(-0.183361 -0.25363 0)
(-0.156617 -0.292194 0)
(-0.111593 -0.28744 0)
(-0.0525372 -0.217388 0)
(-0.00681677 -0.0838271 0)
(-0.00198178 0.0574067 0)
(-0.0134829 0.132581 0)
(-0.0300458 0.177112 0)
(-0.0470798 0.198535 0)
(-0.0629688 0.204439 0)
(-0.0770333 0.199315 0)
(-0.0893326 0.186021 0)
(-0.100347 0.165619 0)
(-0.110659 0.138311 0)
(-0.120887 0.103704 0)
(-0.131524 0.0611992 0)
(-0.1428 0.0101522 0)
(-0.154491 -0.0498069 0)
(-0.165458 -0.118301 0)
(-0.173312 -0.192835 0)
(-0.173412 -0.266787 0)
(-0.159238 -0.324679 0)
(-0.123731 -0.340052 0)
(-0.0655853 -0.275148 0)
(-0.0100432 -0.115216 0)
(-0.002731 0.0647452 0)
(-0.0155429 0.146282 0)
(-0.0311676 0.192675 0)
(-0.0451944 0.212946 0)
(-0.05606 0.216855 0)
(-0.0639506 0.209672 0)
(-0.0693719 0.194897 0)
(-0.0733717 0.173791 0)
(-0.0769252 0.146653 0)
(-0.0810744 0.113044 0)
(-0.0867464 0.0722025 0)
(-0.094688 0.0231304 0)
(-0.105365 -0.0351999 0)
(-0.11846 -0.103626 0)
(-0.132671 -0.181623 0)
(-0.143908 -0.265499 0)
(-0.14559 -0.342097 0)
(-0.126151 -0.383458 0)
(-0.0776541 -0.335313 0)
(-0.0144485 -0.154981 0)
(-0.00448823 0.0748448 0)
(-0.0204022 0.161157 0)
(-0.0351184 0.206787 0)
(-0.0451644 0.223138 0)
(-0.0491657 0.223157 0)
(-0.0488267 0.212772 0)
(-0.0452358 0.19604 0)
(-0.0401591 0.174274 0)
(-0.0349481 0.147795 0)
(-0.0310301 0.116105 0)
(-0.0296891 0.0783356 0)
(-0.03211 0.0332776 0)
(-0.0394038 -0.0205251 0)
(-0.0521055 -0.0848338 0)
(-0.0703626 -0.16095 0)
(-0.0913769 -0.248681 0)
(-0.110349 -0.339517 0)
(-0.112578 -0.409046 0)
(-0.0847126 -0.390461 0)
(-0.019985 -0.203133 0)
(-0.00810231 0.0878987 0)
(-0.0306307 0.17623 0)
(-0.0437964 0.217346 0)
(-0.047736 0.226354 0)
(-0.0415826 0.220453 0)
(-0.0298538 0.205893 0)
(-0.01434 0.186989 0)
(0.00232379 0.164852 0)
(0.0184974 0.13968 0)
(0.0324624 0.110878 0)
(0.0427023 0.0775141 0)
(0.0477255 0.0383154 0)
(0.0459105 -0.0083353 0)
(0.0359922 -0.0646601 0)
(0.0163192 -0.133229 0)
(-0.0119997 -0.217039 0)
(-0.0477228 -0.313664 0)
(-0.0753095 -0.407724 0)
(-0.0800538 -0.429194 0)
(-0.0257753 -0.256445 0)
(-0.0146941 0.114274 0)
(-0.0457916 0.197004 0)
(-0.0529377 0.225486 0)
(-0.0453557 0.220727 0)
(-0.0234705 0.20573 0)
(0.00403001 0.18586 0)
(0.0348567 0.164782 0)
(0.0655875 0.142896 0)
(0.0945277 0.119973 0)
(0.119869 0.0952388 0)
(0.140059 0.0676974 0)
(0.153485 0.0361253 0)
(0.158239 -0.00103399 0)
(0.152553 -0.045983 0)
(0.133546 -0.10182 0)
(0.100626 -0.173531 0)
(0.0503856 -0.264668 0)
(-0.00363826 -0.372916 0)
(-0.0522443 -0.438439 0)
(-0.0285712 -0.30945 0)
(-0.0256379 0.142029 0)
(-0.0658767 0.20901 0)
(-0.0487643 0.2161 0)
(-0.0159413 0.194518 0)
(0.0321537 0.170732 0)
(0.0814838 0.147441 0)
(0.130765 0.126308 0)
(0.176668 0.106759 0)
(0.218145 0.0879798 0)
(0.253836 0.0690424 0)
(0.282548 0.0489644 0)
(0.302874 0.0267095 0)
(0.312969 0.000994302 0)
(0.310832 -0.0299045 0)
(0.292938 -0.0687954 0)
(0.257211 -0.120679 0)
(0.195876 -0.192941 0)
(0.117909 -0.296177 0)
(0.0173485 -0.395186 0)
(-0.0172529 -0.338752 0)
(-0.0187065 0.214761 0)
(-0.0197428 0.215401 0)
(0.0565017 0.181376 0)
(0.128215 0.139955 0)
(0.204643 0.109989 0)
(0.272375 0.0877529 0)
(0.333563 0.0706107 0)
(0.386849 0.0568176 0)
(0.432605 0.0449217 0)
(0.470571 0.0339365 0)
(0.500337 0.023026 0)
(0.521087 0.0114768 0)
(0.531489 -0.00154242 0)
(0.529762 -0.0170105 0)
(0.51272 -0.03692 0)
(0.477373 -0.0646774 0)
(0.413993 -0.108501 0)
(0.323518 -0.186684 0)
(0.172927 -0.296523 0)
(0.0429218 -0.335003 0)
(0.211378 0.129608 0)
(0.297422 0.100989 0)
(0.451328 0.0674607 0)
(0.543331 0.04426 0)
(0.617895 0.0290062 0)
(0.673553 0.0197706 0)
(0.717262 0.0137879 0)
(0.751699 0.00977215 0)
(0.778858 0.00682663 0)
(0.799739 0.00445204 0)
(0.814766 0.00231508 0)
(0.823871 0.000195166 0)
(0.826534 -0.00212948 0)
(0.821738 -0.00484566 0)
(0.807589 -0.00849763 0)
(0.781098 -0.0136801 0)
(0.734228 -0.0229012 0)
(0.658562 -0.0407389 0)
(0.498142 -0.0743809 0)
(0.288343 -0.136226 0)
)
;

boundaryField
{
    movingWall
    {
        type            fixedValue;
        value           uniform (1 0 0);
    }
    fixedWalls
    {
        type            noSlip;
    }
    frontAndBack
    {
        type            empty;
    }
}


// ************************************************************************* //
