/*--------------------------------*- C++ -*----------------------------------*\
| =========                 |                                                 |
| \\      /  F ield         | OpenFOAM: The Open Source CFD Toolbox           |
|  \\    /   O peration     | Version:  4.1                                   |
|   \\  /    A nd           | Web:      www.OpenFOAM.org                      |
|    \\/     M anipulation  |                                                 |
\*---------------------------------------------------------------------------*/
FoamFile
{
    version     2.0;
    format      ascii;
    class       volVectorField;
    location    "11.75";
    object      U;
}
// * * * * * * * * * * * * * * * * * * * * * * * * * * * * * * * * * * * * * //

dimensions      [0 1 -1 0 0 0 0];

internalField   nonuniform List<vector> 
400
(
(0.000201214 -0.000198356 0)
(-9.00647e-05 8.44682e-05 0)
(-0.00154515 0.000333476 0)
(-0.00375582 0.000517022 0)
(-0.00648519 0.000606566 0)
(-0.00939259 0.000636663 0)
(-0.0122515 0.000612227 0)
(-0.0148167 0.00053744 0)
(-0.0168589 0.000406107 0)
(-0.0181406 0.000216467 0)
(-0.0184543 -2.47419e-05 0)
(-0.0176626 -0.00029507 0)
(-0.0157512 -0.000556427 0)
(-0.0128784 -0.000757667 0)
(-0.00937982 -0.000849269 0)
(-0.00576598 -0.000791582 0)
(-0.00258816 -0.000587112 0)
(-0.000402611 -0.000257944 0)
(0.000560712 7.385e-05 0)
(0.000317367 0.000302447 0)
(-8.91841e-05 8.06993e-05 0)
(-0.00206749 0.00193983 0)
(-0.00650558 0.00367062 0)
(-0.0124938 0.00490925 0)
(-0.0195229 0.00554111 0)
(-0.0268545 0.00565758 0)
(-0.0339276 0.00529752 0)
(-0.0401491 0.00448061 0)
(-0.0449704 0.00320585 0)
(-0.0478653 0.0015049 0)
(-0.0484083 -0.000524173 0)
(-0.0463528 -0.00268979 0)
(-0.0417241 -0.00471023 0)
(-0.0349004 -0.00624511 0)
(-0.0266142 -0.0069711 0)
(-0.0179393 -0.00666329 0)
(-0.0100389 -0.00532592 0)
(-0.00408887 -0.00319293 0)
(-0.000616402 -0.000938144 0)
(0.00017913 0.000593216 0)
(-0.00042175 0.00167539 0)
(-0.00438709 0.00650887 0)
(-0.0118539 0.0105883 0)
(-0.0213215 0.013387 0)
(-0.0320642 0.0147547 0)
(-0.0430612 0.0148324 0)
(-0.0535245 0.0136975 0)
(-0.0626241 0.0113982 0)
(-0.0696023 0.00797211 0)
(-0.0737536 0.00354201 0)
(-0.0745236 -0.00161682 0)
(-0.0715992 -0.00703173 0)
(-0.0650151 -0.0120447 0)
(-0.0552523 -0.0158836 0)
(-0.0432499 -0.0178155 0)
(-0.0304185 -0.0173314 0)
(-0.0183338 -0.0144092 0)
(-0.00868859 -0.00957639 0)
(-0.00234528 -0.00420726 0)
(-1.33997e-05 -3.66941e-06 0)
(-0.000748646 0.00446027 0)
(-0.00666789 0.0134956 0)
(-0.0170396 0.0205039 0)
(-0.02971 0.0250715 0)
(-0.0437483 0.0271559 0)
(-0.0579114 0.0269911 0)
(-0.071269 0.024712 0)
(-0.082846 0.0204069 0)
(-0.0917614 0.0141703 0)
(-0.0971957 0.00623981 0)
(-0.0984938 -0.00290359 0)
(-0.0952509 -0.012472 0)
(-0.0874248 -0.0213837 0)
(-0.075462 -0.0283631 0)
(-0.0603463 -0.0321626 0)
(-0.0436928 -0.031862 0)
(-0.0274309 -0.0272974 0)
(-0.0138446 -0.0192375 0)
(-0.00427939 -0.00977774 0)
(-0.000209167 -0.00151446 0)
(-0.00102714 0.00840419 0)
(-0.0087073 0.0228629 0)
(-0.0217261 0.0333593 0)
(-0.0372913 0.0398651 0)
(-0.0542781 0.0426149 0)
(-0.0712643 0.0420089 0)
(-0.0872403 0.038273 0)
(-0.101156 0.0315479 0)
(-0.112069 0.0219891 0)
(-0.11908 0.00994397 0)
(-0.121429 -0.0039125 0)
(-0.118563 -0.0184885 0)
(-0.110254 -0.032269 0)
(-0.0967628 -0.0434174 0)
(-0.0789583 -0.0500392 0)
(-0.0585446 -0.0505985 0)
(-0.0377907 -0.0445583 0)
(-0.0197281 -0.0327711 0)
(-0.0064158 -0.0180529 0)
(-0.000389987 -0.00403292 0)
(-0.00126192 0.0133187 0)
(-0.0104432 0.0342634 0)
(-0.0257434 0.048731 0)
(-0.0438101 0.0573097 0)
(-0.063354 0.0606825 0)
(-0.0828215 0.0595041 0)
(-0.101178 0.054136 0)
(-0.117359 0.0447806 0)
(-0.130411 0.0316394 0)
(-0.139389 0.0151299 0)
(-0.143421 -0.0039389 0)
(-0.141755 -0.0242377 0)
(-0.133875 -0.0438613 0)
(-0.1197 -0.0603866 0)
(-0.0997915 -0.0711281 0)
(-0.0757676 -0.0736502 0)
(-0.050159 -0.0666606 0)
(-0.0268876 -0.0507781 0)
(-0.0090239 -0.0294761 0)
(-0.000606228 -0.00767517 0)
(-0.00144248 0.0190431 0)
(-0.0118055 0.0473718 0)
(-0.0289256 0.066232 0)
(-0.049 0.0770179 0)
(-0.070614 0.0810147 0)
(-0.0921338 0.0792219 0)
(-0.112548 0.0721855 0)
(-0.130836 0.060178 0)
(-0.146084 0.0434204 0)
(-0.157343 0.0223378 0)
(-0.16365 -0.00222226 0)
(-0.164042 -0.0288069 0)
(-0.157649 -0.0552215 0)
(-0.143913 -0.0784896 0)
(-0.122865 -0.0950203 0)
(-0.0957626 -0.101147 0)
(-0.0651686 -0.0942715 0)
(-0.0359179 -0.0742129 0)
(-0.0124253 -0.0448628 0)
(-0.000907155 -0.012767 0)
(-0.00156356 0.0253562 0)
(-0.012739 0.0617409 0)
(-0.0311269 0.0853179 0)
(-0.0525967 0.0984226 0)
(-0.0756471 0.103075 0)
(-0.0986158 0.100705 0)
(-0.120559 0.092099 0)
(-0.140554 0.0776092 0)
(-0.157791 0.0574496 0)
(-0.171378 0.03198 0)
(-0.180326 0.00197045 0)
(-0.183511 -0.0311585 0)
(-0.179715 -0.0650944 0)
(-0.167825 -0.0964424 0)
(-0.147135 -0.120697 0)
(-0.118164 -0.132672 0)
(-0.0830654 -0.127766 0)
(-0.0473347 -0.104081 0)
(-0.0169825 -0.065273 0)
(-0.00135971 -0.0198038 0)
(-0.00162238 0.0320303 0)
(-0.0132103 0.07689 0)
(-0.0322431 0.10538 0)
(-0.0543794 0.120857 0)
(-0.0780624 0.126186 0)
(-0.101651 0.123311 0)
(-0.124308 0.113317 0)
(-0.145266 0.0966601 0)
(-0.163883 0.0735313 0)
(-0.179414 0.044164 0)
(-0.19095 0.00913665 0)
(-0.197323 -0.0303391 0)
(-0.197077 -0.0720701 0)
(-0.188571 -0.112509 0)
(-0.170239 -0.146418 0)
(-0.141469 -0.166985 0)
(-0.103356 -0.166902 0)
(-0.0613748 -0.141228 0)
(-0.0230569 -0.0919853 0)
(-0.00204583 -0.0295014 0)
(-0.00162799 0.0388147 0)
(-0.0132493 0.0922781 0)
(-0.032281 0.125706 0)
(-0.0542665 0.14349 0)
(-0.077614 0.149448 0)
(-0.100756 0.146108 0)
(-0.123 0.134929 0)
(-0.143789 0.116505 0)
(-0.162718 0.0910121 0)
(-0.179286 0.0585246 0)
(-0.192798 0.0193439 0)
(-0.202214 -0.0256925 0)
(-0.206037 -0.0747819 0)
(-0.20227 -0.124611 0)
(-0.188536 -0.169642 0)
(-0.162825 -0.201682 0)
(-0.12447 -0.210264 0)
(-0.0777512 -0.185837 0)
(-0.030975 -0.126266 0)
(-0.00307913 -0.0427905 0)
(-0.0016178 0.0455406 0)
(-0.0129941 0.107446 0)
(-0.0314251 0.145603 0)
(-0.052406 0.165428 0)
(-0.0743223 0.171807 0)
(-0.0957517 0.167928 0)
(-0.116185 0.155704 0)
(-0.135338 0.135913 0)
(-0.153103 0.108751 0)
(-0.16931 0.0741367 0)
(-0.183605 0.0320562 0)
(-0.195259 -0.0171413 0)
(-0.202985 -0.0722896 0)
(-0.20473 -0.130755 0)
(-0.197586 -0.187346 0)
(-0.178161 -0.233204 0)
(-0.143539 -0.254856 0)
(-0.0953229 -0.236805 0)
(-0.0409284 -0.169016 0)
(-0.00461738 -0.0608266 0)
(-0.00166171 0.05208 0)
(-0.0127584 0.121956 0)
(-0.0301486 0.164339 0)
(-0.0493116 0.18565 0)
(-0.0686241 0.192021 0)
(-0.0869307 0.187361 0)
(-0.103966 0.17412 0)
(-0.11979 0.153308 0)
(-0.134636 0.125186 0)
(-0.148732 0.0895499 0)
(-0.162143 0.0460905 0)
(-0.174595 -0.00536741 0)
(-0.185256 -0.0644449 0)
(-0.192369 -0.129572 0)
(-0.19299 -0.19664 0)
(-0.182733 -0.257269 0)
(-0.156474 -0.29601 0)
(-0.111777 -0.291079 0)
(-0.0527708 -0.220152 0)
(-0.00687132 -0.0849215 0)
(-0.00192158 0.0587571 0)
(-0.0130907 0.135872 0)
(-0.02922 0.181536 0)
(-0.0458287 0.203295 0)
(-0.0613118 0.208866 0)
(-0.0749938 0.20292 0)
(-0.0869366 0.188521 0)
(-0.0976368 0.166922 0)
(-0.107698 0.138484 0)
(-0.117764 0.102925 0)
(-0.128348 0.0596941 0)
(-0.139694 0.00814464 0)
(-0.151588 -0.0521406 0)
(-0.162897 -0.120859 0)
(-0.171229 -0.195597 0)
(-0.171921 -0.269785 0)
(-0.158394 -0.327914 0)
(-0.123459 -0.343331 0)
(-0.0656512 -0.277864 0)
(-0.0100882 -0.116415 0)
(-0.00264827 0.0658418 0)
(-0.0149806 0.14909 0)
(-0.0299535 0.196556 0)
(-0.0433374 0.217186 0)
(-0.0536124 0.220813 0)
(-0.0609937 0.212875 0)
(-0.0659969 0.197072 0)
(-0.0696823 0.17486 0)
(-0.0730339 0.146695 0)
(-0.0770983 0.112242 0)
(-0.0828019 0.070787 0)
(-0.0908874 0.0213283 0)
(-0.101818 -0.0372072 0)
(-0.115274 -0.105729 0)
(-0.129962 -0.183799 0)
(-0.141793 -0.267801 0)
(-0.144169 -0.344602 0)
(-0.125433 -0.386131 0)
(-0.0775071 -0.337732 0)
(-0.0144724 -0.156182 0)
(-0.00439022 0.0756122 0)
(-0.0197218 0.163322 0)
(-0.0336273 0.209933 0)
(-0.0428711 0.226675 0)
(-0.0461497 0.226509 0)
(-0.0452208 0.215494 0)
(-0.0411899 0.197875 0)
(-0.035832 0.175146 0)
(-0.0304936 0.147777 0)
(-0.0265875 0.115364 0)
(-0.0253769 0.0770842 0)
(-0.0280239 0.0317274 0)
(-0.0356226 -0.0221993 0)
(-0.0486993 -0.0865172 0)
(-0.0674081 -0.162602 0)
(-0.0889631 -0.250342 0)
(-0.108584 -0.341286 0)
(-0.111528 -0.410994 0)
(-0.0843528 -0.392381 0)
(-0.0199764 -0.204215 0)
(-0.00800303 0.0883022 0)
(-0.0299224 0.17767 0)
(-0.0422155 0.219646 0)
(-0.0452843 0.229078 0)
(-0.0383469 0.223112 0)
(-0.0259937 0.208094 0)
(-0.0100405 0.188494 0)
(0.00686847 0.165582 0)
(0.0231061 0.139682 0)
(0.036981 0.110287 0)
(0.0470118 0.076506 0)
(0.051742 0.0370698 0)
(0.0495789 -0.00966287 0)
(0.039275 -0.0659572 0)
(0.0191795 -0.134439 0)
(-0.00961185 -0.218171 0)
(-0.045888 -0.314798 0)
(-0.0741109 -0.408969 0)
(-0.0795393 -0.430515 0)
(-0.025729 -0.257291 0)
(-0.0146186 0.114336 0)
(-0.0452018 0.197729 0)
(-0.0515619 0.226922 0)
(-0.0431674 0.222601 0)
(-0.0205205 0.20766 0)
(0.00760121 0.187519 0)
(0.0388688 0.165961 0)
(0.0698414 0.143511 0)
(0.0988335 0.120043 0)
(0.124065 0.0948532 0)
(0.144022 0.0669843 0)
(0.157132 0.0352226 0)
(0.161523 -0.00200075 0)
(0.15545 -0.0469145 0)
(0.136049 -0.102654 0)
(0.102719 -0.17425 0)
(0.0520329 -0.265313 0)
(-0.00250153 -0.373581 0)
(-0.0516829 -0.439183 0)
(-0.0284939 -0.309988 0)
(-0.0256196 0.141871 0)
(-0.0655845 0.209201 0)
(-0.0479443 0.216818 0)
(-0.0144987 0.195619 0)
(0.0342549 0.171954 0)
(0.0841731 0.148546 0)
(0.133909 0.127136 0)
(0.180095 0.107234 0)
(0.221675 0.0880964 0)
(0.257306 0.0688492 0)
(0.285826 0.0485408 0)
(0.305869 0.0261475 0)
(0.315626 0.000382255 0)
(0.313128 -0.0304916 0)
(0.294876 -0.0693046 0)
(0.2588 -0.121081 0)
(0.197125 -0.193247 0)
(0.118792 -0.29644 0)
(0.0178286 -0.395484 0)
(-0.0171665 -0.338995 0)
(-0.0187499 0.214573 0)
(-0.019798 0.215329 0)
(0.0566425 0.181588 0)
(0.12872 0.140406 0)
(0.205633 0.110545 0)
(0.273862 0.0882871 0)
(0.335478 0.0710288 0)
(0.389067 0.05707 0)
(0.434975 0.0449979 0)
(0.472945 0.0338558 0)
(0.502587 0.022827 0)
(0.52312 0.011207 0)
(0.533246 -0.00183556 0)
(0.53122 -0.0172857 0)
(0.513889 -0.0371464 0)
(0.478278 -0.0648359 0)
(0.414675 -0.10859 0)
(0.323995 -0.186723 0)
(0.173204 -0.296558 0)
(0.0429831 -0.335042 0)
(0.211327 0.129532 0)
(0.297266 0.10093 0)
(0.451164 0.0674645 0)
(0.543291 0.0443189 0)
(0.618085 0.0290914 0)
(0.674007 0.0198547 0)
(0.717958 0.0138507 0)
(0.752569 0.00980347 0)
(0.779812 0.00682517 0)
(0.800689 0.0044229 0)
(0.815636 0.00226727 0)
(0.824606 0.000139031 0)
(0.827109 -0.00218411 0)
(0.822149 -0.00489104 0)
(0.807855 -0.00852848 0)
(0.78125 -0.0136943 0)
(0.734305 -0.0228999 0)
(0.6586 -0.0407264 0)
(0.498164 -0.0743661 0)
(0.288347 -0.136213 0)
)
;

boundaryField
{
    movingWall
    {
        type            fixedValue;
        value           uniform (1 0 0);
    }
    fixedWalls
    {
        type            noSlip;
    }
    frontAndBack
    {
        type            empty;
    }
}


// ************************************************************************* //
