/*--------------------------------*- C++ -*----------------------------------*\
| =========                 |                                                 |
| \\      /  F ield         | OpenFOAM: The Open Source CFD Toolbox           |
|  \\    /   O peration     | Version:  4.1                                   |
|   \\  /    A nd           | Web:      www.OpenFOAM.org                      |
|    \\/     M anipulation  |                                                 |
\*---------------------------------------------------------------------------*/
FoamFile
{
    version     2.0;
    format      ascii;
    class       volVectorField;
    location    "10.25";
    object      U;
}
// * * * * * * * * * * * * * * * * * * * * * * * * * * * * * * * * * * * * * //

dimensions      [0 1 -1 0 0 0 0];

internalField   nonuniform List<vector> 
400
(
(0.000200022 -0.000197164 0)
(-9.15107e-05 8.47274e-05 0)
(-0.0015425 0.000332788 0)
(-0.00374605 0.000515595 0)
(-0.00646625 0.000604751 0)
(-0.00936382 0.000634679 0)
(-0.0122131 0.000610286 0)
(-0.0147702 0.000535758 0)
(-0.0168065 0.00040493 0)
(-0.0180856 0.000216031 0)
(-0.0184004 -2.427e-05 0)
(-0.0176139 -0.000293663 0)
(-0.0157112 -0.000554244 0)
(-0.0128495 -0.000755064 0)
(-0.0093627 -0.000846739 0)
(-0.0057594 -0.000789655 0)
(-0.00258913 -0.000586179 0)
(-0.000407057 -0.000258146 0)
(0.00055677 7.28219e-05 0)
(0.0003162 0.000301293 0)
(-8.92948e-05 8.21648e-05 0)
(-0.00206146 0.00193494 0)
(-0.00648379 0.00365904 0)
(-0.0124502 0.00489277 0)
(-0.0194538 0.00552224 0)
(-0.0267593 0.00563848 0)
(-0.0338085 0.00528022 0)
(-0.0400106 0.00446704 0)
(-0.0448193 0.00319784 0)
(-0.04771 0.00150388 0)
(-0.048258 -0.000517509 0)
(-0.0462167 -0.00267581 0)
(-0.0416098 -0.00469054 0)
(-0.0348129 -0.00622245 0)
(-0.0265551 -0.00694897 0)
(-0.0179063 -0.00664524 0)
(-0.0100261 -0.00531465 0)
(-0.00408822 -0.0031894 0)
(-0.000619619 -0.000940643 0)
(0.000177957 0.000589259 0)
(-0.00042026 0.0016715 0)
(-0.00437025 0.00648721 0)
(-0.0118079 0.0105508 0)
(-0.0212389 0.013339 0)
(-0.0319414 0.0147024 0)
(-0.0428993 0.0147815 0)
(-0.053328 0.0136533 0)
(-0.062401 0.0113654 0)
(-0.0693633 0.00795483 0)
(-0.073511 0.00354305 0)
(-0.0742902 -0.00159661 0)
(-0.0713872 -0.0069939 0)
(-0.0648343 -0.0119934 0)
(-0.0551094 -0.0158253 0)
(-0.0431473 -0.0177582 0)
(-0.030354 -0.0172831 0)
(-0.0183008 -0.014376 0)
(-0.00867707 -0.00956085 0)
(-0.00234456 -0.00420651 0)
(-1.41364e-05 -8.95512e-06 0)
(-0.000745465 0.00444508 0)
(-0.00664001 0.0134458 0)
(-0.0169696 0.0204273 0)
(-0.0295906 0.024979 0)
(-0.043577 0.0270588 0)
(-0.0576913 0.0268994 0)
(-0.0710075 0.0246348 0)
(-0.0825543 0.020352 0)
(-0.0914528 0.014144 0)
(-0.0968849 0.00624581 0)
(-0.0981955 -0.0028648 0)
(-0.0949783 -0.0124037 0)
(-0.0871888 -0.0212929 0)
(-0.0752702 -0.0282602 0)
(-0.0602025 -0.0320602 0)
(-0.043596 -0.0317731 0)
(-0.0273753 -0.0272323 0)
(-0.0138199 -0.0192014 0)
(-0.00427346 -0.00976773 0)
(-0.00020929 -0.00151856 0)
(-0.0010226 0.00837217 0)
(-0.0086705 0.0227746 0)
(-0.0216372 0.033232 0)
(-0.0371434 0.0397175 0)
(-0.0540703 0.0424643 0)
(-0.0710023 0.0418702 0)
(-0.0869339 0.0381594 0)
(-0.100819 0.03147 0)
(-0.111715 0.0219547 0)
(-0.118725 0.00995712 0)
(-0.121088 -0.00385217 0)
(-0.118249 -0.0183861 0)
(-0.109978 -0.0321344 0)
(-0.0965325 -0.0432644 0)
(-0.0787793 -0.0498846 0)
(-0.0584181 -0.0504602 0)
(-0.037713 -0.0444517 0)
(-0.0196899 -0.0327056 0)
(-0.00640445 -0.0180269 0)
(-0.000389501 -0.00403303 0)
(-0.00125652 0.013266 0)
(-0.010401 0.0341296 0)
(-0.0256436 0.0485458 0)
(-0.0436466 0.0571009 0)
(-0.0631276 0.0604744 0)
(-0.0825399 0.0593167 0)
(-0.100853 0.0539859 0)
(-0.117005 0.0446807 0)
(-0.130043 0.0315981 0)
(-0.139021 0.015151 0)
(-0.143066 -0.00385719 0)
(-0.141425 -0.0241022 0)
(-0.133579 -0.0436838 0)
(-0.119447 -0.0601832 0)
(-0.0995878 -0.0709188 0)
(-0.0756171 -0.0734573 0)
(-0.0500616 -0.0665051 0)
(-0.0268366 -0.0506749 0)
(-0.00900715 -0.0294276 0)
(-0.000605107 -0.00766851 0)
(-0.00143692 0.0189681 0)
(-0.0117627 0.0471898 0)
(-0.0288248 0.0659866 0)
(-0.0488365 0.0767471 0)
(-0.0703901 0.0807498 0)
(-0.0918586 0.0789879 0)
(-0.112234 0.0720019 0)
(-0.130497 0.0600588 0)
(-0.145735 0.043374 0)
(-0.156995 0.0223663 0)
(-0.163314 -0.00212197 0)
(-0.163727 -0.0286431 0)
(-0.157362 -0.0550069 0)
(-0.143659 -0.0782412 0)
(-0.122653 -0.0947595 0)
(-0.0955986 -0.100899 0)
(-0.0650568 -0.0940626 0)
(-0.0358558 -0.0740654 0)
(-0.0124034 -0.0447856 0)
(-0.000905351 -0.0127508 0)
(-0.00155859 0.0252598 0)
(-0.0127005 0.0615132 0)
(-0.0310362 0.0850158 0)
(-0.0524502 0.0980944 0)
(-0.0754481 0.102759 0)
(-0.098374 0.100431 0)
(-0.120287 0.0918879 0)
(-0.140265 0.0774756 0)
(-0.157497 0.0574002 0)
(-0.171088 0.032015 0)
(-0.180047 0.00208472 0)
(-0.183246 -0.0309745 0)
(-0.179468 -0.0648535 0)
(-0.1676 -0.0961607 0)
(-0.146938 -0.120395 0)
(-0.118003 -0.132375 0)
(-0.082948 -0.127505 0)
(-0.047265 -0.103885 0)
(-0.0169561 -0.0651624 0)
(-0.00135716 -0.0197754 0)
(-0.00161872 0.0319161 0)
(-0.0131809 0.076624 0)
(-0.032173 0.105031 0)
(-0.0542658 0.120481 0)
(-0.0779093 0.125829 0)
(-0.101468 0.123006 0)
(-0.124106 0.113087 0)
(-0.145057 0.0965185 0)
(-0.163676 0.0734825 0)
(-0.179214 0.044205 0)
(-0.19076 0.00925986 0)
(-0.197143 -0.0301446 0)
(-0.196905 -0.0718167 0)
(-0.188406 -0.11221 0)
(-0.170084 -0.146092 0)
(-0.141331 -0.166654 0)
(-0.103246 -0.166597 0)
(-0.0613037 -0.140987 0)
(-0.0230272 -0.0918387 0)
(-0.00204252 -0.0294584 0)
(-0.00162621 0.0386887 0)
(-0.013233 0.0919856 0)
(-0.03224 0.125323 0)
(-0.0541991 0.143082 0)
(-0.0775236 0.149065 0)
(-0.100651 0.145786 0)
(-0.12289 0.134692 0)
(-0.143683 0.116364 0)
(-0.162621 0.0909683 0)
(-0.179201 0.0585721 0)
(-0.192723 0.0194718 0)
(-0.202145 -0.0254968 0)
(-0.205967 -0.0745305 0)
(-0.202193 -0.124316 0)
(-0.188451 -0.169314 0)
(-0.162735 -0.201338 0)
(-0.124386 -0.209933 0)
(-0.0776878 -0.185559 0)
(-0.0309447 -0.126085 0)
(-0.00307514 -0.0427314 0)
(-0.00161827 0.0454105 0)
(-0.0129936 0.107142 0)
(-0.0314193 0.145205 0)
(-0.0523936 0.165006 0)
(-0.0743059 0.171414 0)
(-0.0957371 0.167603 0)
(-0.116179 0.15547 0)
(-0.135346 0.13578 0)
(-0.153127 0.108718 0)
(-0.16935 0.0741916 0)
(-0.183655 0.0321859 0)
(-0.19531 -0.0169516 0)
(-0.203029 -0.0720522 0)
(-0.204756 -0.130479 0)
(-0.197588 -0.187038 0)
(-0.178138 -0.232874 0)
(-0.143497 -0.254524 0)
(-0.0952786 -0.236507 0)
(-0.0409014 -0.168807 0)
(-0.00461295 -0.0607516 0)
(-0.00166451 0.0519544 0)
(-0.0127748 0.121658 0)
(-0.0301805 0.163946 0)
(-0.0493579 0.185233 0)
(-0.0686856 0.191636 0)
(-0.0870098 0.187047 0)
(-0.104065 0.173901 0)
(-0.119911 0.153191 0)
(-0.134777 0.125165 0)
(-0.148889 0.0896126 0)
(-0.162308 0.0462198 0)
(-0.174759 -0.00518842 0)
(-0.185407 -0.0642293 0)
(-0.192496 -0.129328 0)
(-0.193083 -0.196371 0)
(-0.182785 -0.256976 0)
(-0.156487 -0.295702 0)
(-0.111763 -0.290786 0)
(-0.0527522 -0.219929 0)
(-0.00686693 -0.0848329 0)
(-0.00192658 0.0586447 0)
(-0.0131232 0.135598 0)
(-0.0292884 0.181169 0)
(-0.045932 0.202903 0)
(-0.0614481 0.208505 0)
(-0.0751609 0.202629 0)
(-0.0871322 0.188323 0)
(-0.0978575 0.166823 0)
(-0.107939 0.138477 0)
(-0.118017 0.102993 0)
(-0.128605 0.0598202 0)
(-0.139945 0.00830989 0)
(-0.151823 -0.0519503 0)
(-0.163104 -0.120652 0)
(-0.171398 -0.195374 0)
(-0.172042 -0.269543 0)
(-0.158463 -0.327653 0)
(-0.123482 -0.343067 0)
(-0.0656461 -0.277645 0)
(-0.0100846 -0.116318 0)
(-0.0026551 0.0657504 0)
(-0.0150271 0.148856 0)
(-0.0300537 0.196234 0)
(-0.0434903 0.216836 0)
(-0.0538132 0.220489 0)
(-0.0612355 0.212616 0)
(-0.0662718 0.1969 0)
(-0.0699819 0.174779 0)
(-0.073349 0.146697 0)
(-0.0774196 0.112312 0)
(-0.0831202 0.0709056 0)
(-0.0911937 0.0214769 0)
(-0.102104 -0.0370432 0)
(-0.11553 -0.105559 0)
(-0.130181 -0.183623 0)
(-0.141964 -0.267615 0)
(-0.144284 -0.3444 0)
(-0.125492 -0.385916 0)
(-0.0775192 -0.337537 0)
(-0.0144705 -0.156085 0)
(-0.00439831 0.0755481 0)
(-0.019778 0.163142 0)
(-0.0337504 0.209671 0)
(-0.0430599 0.226383 0)
(-0.0463973 0.226234 0)
(-0.0455158 0.215274 0)
(-0.0415197 0.197729 0)
(-0.0361835 0.17508 0)
(-0.0308545 0.147783 0)
(-0.0269465 0.115428 0)
(-0.0257247 0.0771892 0)
(-0.0283532 0.0318555 0)
(-0.0359271 -0.022062 0)
(-0.0489735 -0.08638 0)
(-0.067646 -0.162468 0)
(-0.0891576 -0.250208 0)
(-0.108726 -0.341143 0)
(-0.111613 -0.410837 0)
(-0.0843819 -0.392226 0)
(-0.0199771 -0.204127 0)
(-0.00801124 0.0882681 0)
(-0.029981 0.17755 0)
(-0.0423463 0.219454 0)
(-0.0454867 0.228853 0)
(-0.0386132 0.222894 0)
(-0.0263103 0.207916 0)
(-0.0103919 0.188374 0)
(0.00649828 0.165526 0)
(0.0227318 0.139686 0)
(0.036615 0.110339 0)
(0.0466634 0.0765908 0)
(0.0514179 0.0371731 0)
(0.0492832 -0.00955368 0)
(0.0390104 -0.0658511 0)
(0.018949 -0.13434 0)
(-0.00980425 -0.218079 0)
(-0.0460358 -0.314707 0)
(-0.0742075 -0.408868 0)
(-0.0795809 -0.430409 0)
(-0.0257328 -0.257223 0)
(-0.0146249 0.11433 0)
(-0.045251 0.197668 0)
(-0.0516763 0.226802 0)
(-0.0433489 0.222445 0)
(-0.0207645 0.207501 0)
(0.00730689 0.187384 0)
(0.0385393 0.165866 0)
(0.0694933 0.143463 0)
(0.0984823 0.12004 0)
(0.123724 0.0948871 0)
(0.1437 0.0670445 0)
(0.156837 0.0352977 0)
(0.161257 -0.00192097 0)
(0.155216 -0.046838 0)
(0.135847 -0.102586 0)
(0.10255 -0.174191 0)
(0.0519001 -0.265261 0)
(-0.00259317 -0.373527 0)
(-0.0517282 -0.439123 0)
(-0.0285002 -0.309945 0)
(-0.0256212 0.141884 0)
(-0.0656092 0.209184 0)
(-0.0480132 0.216757 0)
(-0.0146194 0.195527 0)
(0.0340798 0.171853 0)
(0.0839498 0.148456 0)
(0.13365 0.127069 0)
(0.179813 0.107197 0)
(0.221385 0.0880885 0)
(0.257022 0.0688666 0)
(0.285559 0.0485768 0)
(0.305625 0.0261944 0)
(0.31541 0.000432911 0)
(0.312942 -0.0304433 0)
(0.29472 -0.0692628 0)
(0.258672 -0.121048 0)
(0.197024 -0.193222 0)
(0.118721 -0.296419 0)
(0.01779 -0.395461 0)
(-0.0171735 -0.338976 0)
(-0.0187463 0.214588 0)
(-0.0197938 0.215334 0)
(0.0566299 0.18157 0)
(0.128677 0.140368 0)
(0.20555 0.110499 0)
(0.273737 0.088243 0)
(0.335318 0.0709947 0)
(0.388883 0.0570498 0)
(0.43478 0.0449923 0)
(0.47275 0.0338631 0)
(0.502403 0.0228439 0)
(0.522953 0.0112295 0)
(0.533102 -0.00181129 0)
(0.531102 -0.017263 0)
(0.513795 -0.0371278 0)
(0.478205 -0.0648229 0)
(0.41462 -0.108582 0)
(0.323957 -0.18672 0)
(0.173182 -0.296555 0)
(0.0429782 -0.335039 0)
(0.211332 0.129539 0)
(0.297279 0.100935 0)
(0.451178 0.0674641 0)
(0.543294 0.0443139 0)
(0.618068 0.0290843 0)
(0.673969 0.0198477 0)
(0.717899 0.0138456 0)
(0.752496 0.009801 0)
(0.779733 0.00682541 0)
(0.800611 0.00442541 0)
(0.815564 0.00227128 0)
(0.824546 0.00014368 0)
(0.827062 -0.00217962 0)
(0.822116 -0.00488733 0)
(0.807833 -0.00852597 0)
(0.781237 -0.0136931 0)
(0.734299 -0.0229001 0)
(0.658597 -0.0407275 0)
(0.498163 -0.0743673 0)
(0.288347 -0.136214 0)
)
;

boundaryField
{
    movingWall
    {
        type            fixedValue;
        value           uniform (1 0 0);
    }
    fixedWalls
    {
        type            noSlip;
    }
    frontAndBack
    {
        type            empty;
    }
}


// ************************************************************************* //
