/*--------------------------------*- C++ -*----------------------------------*\
| =========                 |                                                 |
| \\      /  F ield         | OpenFOAM: The Open Source CFD Toolbox           |
|  \\    /   O peration     | Version:  4.1                                   |
|   \\  /    A nd           | Web:      www.OpenFOAM.org                      |
|    \\/     M anipulation  |                                                 |
\*---------------------------------------------------------------------------*/
FoamFile
{
    version     2.0;
    format      ascii;
    class       volVectorField;
    location    "0.0182";
    object      U;
}
// * * * * * * * * * * * * * * * * * * * * * * * * * * * * * * * * * * * * * //

dimensions      [0 1 -1 0 0 0 0];

internalField   nonuniform List<vector> 
441
(
(0.00338014 -0.00493777 0)
(0.00781506 -0.0030822 0)
(-0.000770817 -2.4726e-165 0)
(0.00150074 -2.23123e-266 0)
(-0.0109711 -0.00600353 0)
(-0.00150074 -2.50781e-232 0)
(-1.11758e-202 -3.47981e-203 0)
(-8.69734e-204 -4.23014e-228 0)
(-1.30003e-212 -1.75548e-213 0)
(-0.00461317 7.05916e-266 0)
(-0.0540611 0.018453 0)
(-0.0695939 0.0101755 0)
(-0.0808574 0.00512509 0)
(-0.0758427 0.00132251 0)
(-0.0686311 -0.000262469 0)
(-0.0539472 -0.00155677 0)
(-0.0397299 -0.00160168 0)
(-0.0234515 -0.00189255 0)
(-0.0100452 -0.00069016 0)
(-0.00175749 -1.09738e-05 0)
(0.00302636 0.001971 0)
(0.00278035 -0.00602099 0)
(-0.00524925 0.00729045 0)
(-0.0315761 0.00769353 0)
(-0.0593777 0.0119669 0)
(-0.0970094 0.00827364 0)
(-0.12753 -0.00637711 0)
(-0.153602 -0.000907269 0)
(-0.17662 0.000913897 0)
(-0.195712 0.00917817 0)
(-0.216051 0.0478007 0)
(-0.230462 0.0449475 0)
(-0.226926 0.0169251 0)
(-0.221437 0.000734612 0)
(-0.200074 -0.0139929 0)
(-0.175185 -0.0216687 0)
(-0.139578 -0.0281983 0)
(-0.104171 -0.0287401 0)
(-0.0659808 -0.0287998 0)
(-0.0337947 -0.0207038 0)
(-0.0110598 -0.0138044 0)
(0.00257736 -0.000519704 0)
(0.00590859 -0.00317974 0)
(-0.00802899 0.0308491 0)
(-0.0532387 0.0525692 0)
(-0.106697 0.0635857 0)
(-0.165181 0.0611704 0)
(-0.22243 0.0532908 0)
(-0.278603 0.0472151 0)
(-0.317844 0.0406763 0)
(-0.356078 0.0377758 0)
(-0.369827 0.0384101 0)
(-0.360545 0.0300553 0)
(-0.347842 0.00217398 0)
(-0.328654 -0.0212289 0)
(-0.29531 -0.0447091 0)
(-0.256229 -0.0600293 0)
(-0.20455 -0.0726905 0)
(-0.152958 -0.0742523 0)
(-0.097536 -0.0725617 0)
(-0.0512588 -0.0546368 0)
(-0.0168207 -0.0366424 0)
(0.00356607 -0.00591156 0)
(0.0063228 -0.0040171 0)
(-0.0115816 0.0680097 0)
(-0.0779573 0.106562 0)
(-0.148574 0.12578 0)
(-0.225311 0.124265 0)
(-0.296603 0.109374 0)
(-0.361043 0.0955083 0)
(-0.41135 0.0789783 0)
(-0.449297 0.0626223 0)
(-0.467245 0.0500895 0)
(-0.464466 0.02264 0)
(-0.446507 -0.0158356 0)
(-0.419068 -0.0519728 0)
(-0.374476 -0.0872351 0)
(-0.323046 -0.112304 0)
(-0.256756 -0.132539 0)
(-0.191115 -0.135343 0)
(-0.120327 -0.1318 0)
(-0.0624006 -0.100802 0)
(-0.0181737 -0.0698506 0)
(0.00571654 -0.0134583 0)
(6.13363e-165 0.0015807 0)
(-0.0156703 0.114741 0)
(-0.103789 0.188808 0)
(-0.185092 0.20982 0)
(-0.276242 0.208377 0)
(-0.357839 0.187666 0)
(-0.433428 0.161106 0)
(-0.490877 0.128284 0)
(-0.534656 0.0932484 0)
(-0.554363 0.0542404 0)
(-0.552803 0.0096547 0)
(-0.533282 -0.0429046 0)
(-0.500114 -0.0926644 0)
(-0.447067 -0.14081 0)
(-0.385139 -0.176849 0)
(-0.304617 -0.20505 0)
(-0.225846 -0.209442 0)
(-0.13795 -0.201941 0)
(-0.0695342 -0.155342 0)
(-0.0134527 -0.105327 0)
(0.012057 -0.0174033 0)
(-5.22487e-266 0.00491087 0)
(-0.0700882 0.176049 0)
(-0.139411 0.274344 0)
(-0.231656 0.299918 0)
(-0.323528 0.296998 0)
(-0.412705 0.267621 0)
(-0.49219 0.229044 0)
(-0.556612 0.180494 0)
(-0.604334 0.126669 0)
(-0.630072 0.0676166 0)
(-0.634862 0.00165652 0)
(-0.616841 -0.0692933 0)
(-0.581966 -0.138098 0)
(-0.522266 -0.203312 0)
(-0.451063 -0.254415 0)
(-0.356166 -0.293505 0)
(-0.263078 -0.301191 0)
(-0.156357 -0.290471 0)
(-0.075459 -0.223839 0)
(-0.00393445 -0.154197 0)
(0.0161651 -0.0141215 0)
(-0.0196435 0.0751974 0)
(-0.094556 0.250733 0)
(-0.172459 0.351034 0)
(-0.269274 0.392434 0)
(-0.369505 0.389009 0)
(-0.465822 0.355317 0)
(-0.553626 0.304577 0)
(-0.625675 0.239883 0)
(-0.68109 0.166622 0)
(-0.713789 0.0846962 0)
(-0.724942 -0.00321618 0)
(-0.710537 -0.0958995 0)
(-0.675908 -0.186489 0)
(-0.611397 -0.272107 0)
(-0.532132 -0.341699 0)
(-0.421586 -0.393918 0)
(-0.31399 -0.407312 0)
(-0.182509 -0.390955 0)
(-0.0923906 -0.305161 0)
(0.00843952 -0.198298 0)
(5.29e-266 -0.00404127 0)
(-0.0138949 0.121419 0)
(-0.0859605 0.329907 0)
(-0.18462 0.449835 0)
(-0.29476 0.497881 0)
(-0.407099 0.494084 0)
(-0.51408 0.452318 0)
(-0.610991 0.389408 0)
(-0.693051 0.308113 0)
(-0.757633 0.21519 0)
(-0.800451 0.111141 0)
(-0.821017 -0.00138952 0)
(-0.813654 -0.119108 0)
(-0.78282 -0.237047 0)
(-0.716523 -0.348574 0)
(-0.630668 -0.443743 0)
(-0.505251 -0.514279 0)
(-0.379932 -0.538861 0)
(-0.224249 -0.516512 0)
(-0.115541 -0.410972 0)
(-0.000241418 -0.254562 0)
(1.63471e-24 -1.96107e-24 0)
(-0.0117424 0.172191 0)
(-0.0879841 0.41974 0)
(-0.20128 0.558741 0)
(-0.323972 0.613472 0)
(-0.449856 0.60756 0)
(-0.568343 0.558145 0)
(-0.676507 0.483114 0)
(-0.76986 0.38588 0)
(-0.845739 0.274004 0)
(-0.900681 0.147785 0)
(-0.932852 0.0104275 0)
(-0.936155 -0.134331 0)
(-0.912875 -0.282638 0)
(-0.848909 -0.424826 0)
(-0.759277 -0.551202 0)
(-0.61902 -0.646049 0)
(-0.473709 -0.685198 0)
(-0.285058 -0.658045 0)
(-0.1512 -0.523702 0)
(-0.00283439 -0.318539 0)
(6.58316e-77 -4.08677e-25 0)
(-0.0102545 0.222064 0)
(-0.0887818 0.521115 0)
(-0.21487 0.686943 0)
(-0.349857 0.747371 0)
(-0.489028 0.739373 0)
(-0.619681 0.679428 0)
(-0.739177 0.591617 0)
(-0.844877 0.477442 0)
(-0.933066 0.346429 0)
(-1.00252 0.19796 0)
(-1.04943 0.0342463 0)
(-1.0681 -0.139928 0)
(-1.05801 -0.324235 0)
(-1.00263 -0.504015 0)
(-0.914276 -0.673387 0)
(-0.761785 -0.80348 0)
(-0.593816 -0.871676 0)
(-0.365049 -0.845346 0)
(-0.19546 -0.68953 0)
(-0.00546273 -0.41601 0)
(1.79114e-164 -1.64579e-77 0)
(-0.0110329 0.26833 0)
(-0.0971119 0.622706 0)
(-0.238273 0.817994 0)
(-0.387001 0.885781 0)
(-0.539491 0.876227 0)
(-0.68205 0.806836 0)
(-0.811875 0.707733 0)
(-0.92937 0.578887 0)
(-1.02933 0.431586 0)
(-1.11447 0.263788 0)
(-1.17812 0.0764872 0)
(-1.21746 -0.125856 0)
(-1.22704 -0.34687 0)
(-1.19001 -0.568933 0)
(-1.11155 -0.789694 0)
(-0.954571 -0.968112 0)
(-0.764961 -1.07763 0)
(-0.491561 -1.06024 0)
(-0.274126 -0.874478 0)
(-0.0567472 -0.521645 0)
(9.467e-266 0.00831074 0)
(-0.0129534 0.331458 0)
(-0.106425 0.750611 0)
(-0.261832 0.978709 0)
(-0.422875 1.04967 0)
(-0.586398 1.03605 0)
(-0.738764 0.952282 0)
(-0.876287 0.840046 0)
(-1.00358 0.69498 0)
(-1.11348 0.532005 0)
(-1.2139 0.346469 0)
(-1.29549 0.137149 0)
(-1.35951 -0.0918095 0)
(-1.39607 -0.352121 0)
(-1.38801 -0.62143 0)
(-1.33242 -0.90936 0)
(-1.18225 -1.15453 0)
(-0.975354 -1.33474 0)
(-0.644041 -1.34474 0)
(-0.349452 -1.12151 0)
(-0.048191 -0.702342 0)
(0.033243 -0.0569678 0)
(-0.0180198 0.383529 0)
(-0.126475 0.868694 0)
(-0.303606 1.13171 0)
(-0.479973 1.20724 0)
(-0.652522 1.19052 0)
(-0.811645 1.09441 0)
(-0.950463 0.971806 0)
(-1.08222 0.814817 0)
(-1.19536 0.641747 0)
(-1.30715 0.445474 0)
(-1.4031 0.222508 0)
(-1.49399 -0.0249136 0)
(-1.56163 -0.31699 0)
(-1.59631 -0.632088 0)
(-1.57886 -0.992426 0)
(-1.45796 -1.32609 0)
(-1.25115 -1.61088 0)
(-0.852888 -1.69046 0)
(-0.476699 -1.46349 0)
(0.0357026 -0.907937 0)
(1.6869e-231 -0.00831074 0)
(-0.0248194 0.478935 0)
(-0.148252 1.0394 0)
(-0.344504 1.33618 0)
(-0.532014 1.39988 0)
(-0.707424 1.37098 0)
(-0.866688 1.25071 0)
(-0.999057 1.11262 0)
(-1.12707 0.939982 0)
(-1.2345 0.757548 0)
(-1.34843 0.554045 0)
(-1.4503 0.323312 0)
(-1.56115 0.0662041 0)
(-1.65832 -0.251487 0)
(-1.74066 -0.605572 0)
(-1.77953 -1.04998 0)
(-1.71899 -1.48656 0)
(-1.55499 -1.94247 0)
(-1.14397 -2.13206 0)
(-0.689773 -2.00756 0)
(-0.00306556 -1.20519 0)
(4.237e-202 3.63234e-184 0)
(-0.0429235 0.5493 0)
(-0.198674 1.18224 0)
(-0.425049 1.5113 0)
(-0.624754 1.56444 0)
(-0.789869 1.52321 0)
(-0.93643 1.38231 0)
(-1.04198 1.23149 0)
(-1.14886 1.04857 0)
(-1.22965 0.862977 0)
(-1.3281 0.661259 0)
(-1.41553 0.435442 0)
(-1.53236 0.184443 0)
(-1.64259 -0.136328 0)
(-1.775 -0.508557 0)
(-1.87184 -1.00996 0)
(-1.91922 -1.54916 0)
(-1.83637 -2.17597 0)
(-1.50531 -2.5627 0)
(-0.99759 -2.58637 0)
(-0.00534179 -1.61853 0)
(1.45294e-183 3.20815e-184 0)
(-0.0631859 0.728115 0)
(-0.248046 1.42587 0)
(-0.489358 1.77133 0)
(-0.68416 1.7659 0)
(-0.819631 1.6894 0)
(-0.933356 1.50319 0)
(-0.991972 1.3288 0)
(-1.05575 1.12785 0)
(-1.08741 0.937812 0)
(-1.14447 0.740217 0)
(-1.19027 0.526105 0)
(-1.28039 0.293765 0)
(-1.37331 -0.012896 0)
(-1.52171 -0.375461 0)
(-1.66681 -0.912422 0)
(-1.82437 -1.52129 0)
(-1.90582 -2.36695 0)
(-1.77454 -2.97882 0)
(-1.43723 -3.52982 0)
(-0.408607 -2.24017 0)
(3.69094e-254 -3.63234e-184 0)
(-0.128607 0.845749 0)
(-0.38351 1.59496 0)
(-0.627538 1.94131 0)
(-0.792214 1.88438 0)
(-0.836052 1.7708 0)
(-0.869751 1.54907 0)
(-0.825437 1.35404 0)
(-0.804213 1.14222 0)
(-0.744741 0.952195 0)
(-0.727422 0.765195 0)
(-0.696264 0.571711 0)
(-0.731337 0.371108 0)
(-0.767113 0.105662 0)
(-0.910677 -0.208689 0)
(-1.0574 -0.703166 0)
(-1.3684 -1.30153 0)
(-1.60279 -2.20664 0)
(-2.00576 -3.03234 0)
(-1.87773 -3.88406 0)
(-1.91924 -3.12159 0)
(-2.27496e-264 -0.195721 0)
(-0.181212 1.26072 0)
(-0.461153 1.92879 0)
(-0.628074 2.20168 0)
(-0.687612 1.97454 0)
(-0.580398 1.78056 0)
(-0.478619 1.49238 0)
(-0.293336 1.26988 0)
(-0.151496 1.04737 0)
(0.0238812 0.862893 0)
(0.140811 0.692911 0)
(0.269161 0.528218 0)
(0.318615 0.367538 0)
(0.368486 0.160464 0)
(0.291715 -0.0788504 0)
(0.197181 -0.467762 0)
(-0.12022 -0.961534 0)
(-0.465613 -1.75872 0)
(-1.10867 -2.66402 0)
(-1.50801 -3.69973 0)
(-1.8822 -3.99902 0)
(-0.782885 -2.13027 0)
(-0.396957 1.45308 0)
(-0.729453 2.01279 0)
(-0.565736 2.16149 0)
(-0.359103 1.82008 0)
(0.0912392 1.56314 0)
(0.427089 1.25493 0)
(0.834427 1.02951 0)
(1.1338 0.823651 0)
(1.44666 0.66189 0)
(1.66573 0.522539 0)
(1.88635 0.39494 0)
(2.00579 0.278587 0)
(2.1308 0.133072 0)
(2.10418 -0.0242982 0)
(2.08331 -0.28999 0)
(1.77748 -0.616261 0)
(1.46457 -1.21512 0)
(0.653624 -1.95326 0)
(-0.0151163 -3.10436 0)
(-0.90171 -3.77628 0)
(-0.685477 -2.88871 0)
(-0.249771 2.44885 0)
(-0.073856 2.09214 0)
(0.715171 1.88256 0)
(1.33318 1.31141 0)
(2.08635 1.0168 0)
(2.62349 0.74505 0)
(3.16444 0.571761 0)
(3.55121 0.433362 0)
(3.91892 0.333079 0)
(4.17423 0.253938 0)
(4.41821 0.186339 0)
(4.55764 0.127272 0)
(4.70121 0.0564678 0)
(4.70167 -0.0209442 0)
(4.71701 -0.15277 0)
(4.46807 -0.321366 0)
(4.22085 -0.662124 0)
(3.44007 -1.14728 0)
(2.61293 -2.20126 0)
(0.976954 -3.28383 0)
(-0.0421843 -3.79247 0)
(1.67253 1.67506 0)
(2.72987 0.98223 0)
(4.58855 0.753808 0)
(5.42763 0.423907 0)
(6.27373 0.280833 0)
(6.74377 0.168098 0)
(7.16857 0.10889 0)
(7.42937 0.0681362 0)
(7.66252 0.0434223 0)
(7.80585 0.026473 0)
(7.94073 0.0136095 0)
(8.00316 0.00293121 0)
(8.0734 -0.0108748 0)
(8.0437 -0.0257752 0)
(8.03606 -0.0574076 0)
(7.82483 -0.092021 0)
(7.64544 -0.188249 0)
(6.95652 -0.292517 0)
(6.25551 -0.637881 0)
(4.04936 -1.0169 0)
(2.02271 -1.84447 0)
)
;

boundaryField
{
    movingWall
    {
        type            fixedValue;
        value           uniform (10 0 0);
    }
    fixedWalls
    {
        type            noSlip;
    }
    frontAndBack
    {
        type            empty;
    }
}


// ************************************************************************* //
