/*--------------------------------*- C++ -*----------------------------------*\
| =========                 |                                                 |
| \\      /  F ield         | OpenFOAM: The Open Source CFD Toolbox           |
|  \\    /   O peration     | Version:  4.1                                   |
|   \\  /    A nd           | Web:      www.OpenFOAM.org                      |
|    \\/     M anipulation  |                                                 |
\*---------------------------------------------------------------------------*/
FoamFile
{
    version     2.0;
    format      ascii;
    class       volVectorField;
    location    "0.027";
    object      U;
}
// * * * * * * * * * * * * * * * * * * * * * * * * * * * * * * * * * * * * * //

dimensions      [0 1 -1 0 0 0 0];

internalField   nonuniform List<vector> 
441
(
(-0.000106935 9.22984e-05 0)
(-0.000700359 0.000443044 0)
(-0.0018034 0.000798757 0)
(-0.00331025 0.00104667 0)
(-0.00505135 0.00116279 0)
(-0.00684561 0.00115536 0)
(-0.00853151 0.00104394 0)
(-0.0099778 0.000851104 0)
(-0.0110854 0.000598673 0)
(-0.0117852 0.000306659 0)
(-0.0120354 -6.43465e-06 0)
(-0.0118195 -0.000322538 0)
(-0.0111462 -0.000622698 0)
(-0.0100517 -0.000885955 0)
(-0.00860251 -0.00108884 0)
(-0.00689968 -0.00120595 0)
(-0.00508013 -0.00121212 0)
(-0.00331358 -0.0010872 0)
(-0.00178946 -0.000825028 0)
(-0.000682791 -0.000454077 0)
(-9.97631e-05 -9.17621e-05 0)
(-0.000495652 0.000664948 0)
(-0.0024668 0.0023039 0)
(-0.00556923 0.00380206 0)
(-0.00953886 0.00482639 0)
(-0.01399 0.00528919 0)
(-0.0185093 0.0052206 0)
(-0.0227222 0.00470106 0)
(-0.0263196 0.00382661 0)
(-0.0290653 0.00269198 0)
(-0.0307941 0.0013848 0)
(-0.0314062 -1.36827e-05 0)
(-0.030863 -0.00142431 0)
(-0.0291877 -0.00276444 0)
(-0.0264683 -0.00394317 0)
(-0.0228654 -0.00485925 0)
(-0.0186183 -0.00540376 0)
(-0.0140476 -0.00547024 0)
(-0.00954433 -0.00497545 0)
(-0.00553889 -0.00389685 0)
(-0.00242887 -0.00233986 0)
(-0.000479974 -0.000660996 0)
(-0.000930173 0.001792 0)
(-0.00429801 0.00539256 0)
(-0.0092251 0.00841786 0)
(-0.0152923 0.0104132 0)
(-0.0219514 0.0112614 0)
(-0.0286291 0.011034 0)
(-0.0348068 0.00989266 0)
(-0.0400561 0.00802981 0)
(-0.0440496 0.00563687 0)
(-0.0465581 0.00289218 0)
(-0.0474433 -3.81495e-05 0)
(-0.0466523 -0.00299213 0)
(-0.0442178 -0.00580101 0)
(-0.0402624 -0.0082799 0)
(-0.0350086 -0.0102238 0)
(-0.0287873 -0.0114136 0)
(-0.022041 -0.0116358 0)
(-0.0153095 -0.0107228 0)
(-0.00918999 -0.00861697 0)
(-0.00424818 -0.00547046 0)
(-0.000907996 -0.00178673 0)
(-0.001342 0.00346263 0)
(-0.00603679 0.00969245 0)
(-0.0126649 0.0146051 0)
(-0.0206368 0.0177217 0)
(-0.0292462 0.0189505 0)
(-0.0377834 0.0184392 0)
(-0.0456196 0.0164575 0)
(-0.0522422 0.013317 0)
(-0.0572631 0.0093257 0)
(-0.0604125 0.00477003 0)
(-0.0615282 -8.35413e-05 0)
(-0.0605476 -0.00497543 0)
(-0.0575068 -0.00963529 0)
(-0.0525474 -0.0137666 0)
(-0.0459285 -0.01704 0)
(-0.038041 -0.0191021 0)
(-0.0294136 -0.0196061 0)
(-0.0207022 -0.0182702 0)
(-0.0126486 -0.0149673 0)
(-0.00598569 -0.00984453 0)
(-0.00131476 -0.00346305 0)
(-0.00173631 0.00565354 0)
(-0.00771763 0.0151788 0)
(-0.0160028 0.0223424 0)
(-0.0258164 0.0267158 0)
(-0.0362831 0.0282951 0)
(-0.0465584 0.0273524 0)
(-0.0559168 0.0243016 0)
(-0.0637812 0.0196002 0)
(-0.0697236 0.013692 0)
(-0.0734509 0.0069847 0)
(-0.0747874 -0.000145463 0)
(-0.0736631 -0.00733363 0)
(-0.0701115 -0.0141992 0)
(-0.0642784 -0.0203221 0)
(-0.05644 -0.0252308 0)
(-0.0470238 -0.0284127 0)
(-0.0366255 -0.0293546 0)
(-0.0260056 -0.0276195 0)
(-0.0160538 -0.0229603 0)
(-0.0076879 -0.0154606 0)
(-0.00170798 -0.00567483 0)
(-0.00213959 0.00836257 0)
(-0.00944563 0.0218664 0)
(-0.0194409 0.0316584 0)
(-0.0311445 0.0374192 0)
(-0.0434929 0.0392994 0)
(-0.0555003 0.0377546 0)
(-0.0663493 0.0333891 0)
(-0.0754123 0.0268392 0)
(-0.0822382 0.0187044 0)
(-0.0865253 0.00952411 0)
(-0.0880937 -0.000212438 0)
(-0.0868676 -0.0100343 0)
(-0.0828708 -0.019449 0)
(-0.0762395 -0.0279057 0)
(-0.067247 -0.0347748 0)
(-0.0563383 -0.0393564 0)
(-0.0441612 -0.0409287 0)
(-0.0315782 -0.0388443 0)
(-0.0196398 -0.0326722 0)
(-0.00947654 -0.0223684 0)
(-0.0021179 -0.00843337 0)
(-0.00258263 0.0116259 0)
(-0.0113435 0.0298398 0)
(-0.0232004 0.0426571 0)
(-0.0369337 0.0499263 0)
(-0.0512673 0.0520291 0)
(-0.0650644 0.0496775 0)
(-0.0774217 0.0437246 0)
(-0.0876759 0.0350243 0)
(-0.0953719 0.0243534 0)
(-0.100216 0.0123898 0)
(-0.102036 -0.0002669 0)
(-0.100751 -0.013047 0)
(-0.0963698 -0.0253519 0)
(-0.089001 -0.0364991 0)
(-0.0788936 -0.0456869 0)
(-0.0664863 -0.0519963 0)
(-0.0524605 -0.0544444 0)
(-0.0377765 -0.0521016 0)
(-0.0236606 -0.0442706 0)
(-0.0114926 -0.0307018 0)
(-0.00257937 -0.0117952 0)
(-0.00309516 0.0155199 0)
(-0.0135292 0.0392552 0)
(-0.0274833 0.0555121 0)
(-0.0434485 0.0643842 0)
(-0.0599052 0.0665827 0)
(-0.0755589 0.0631688 0)
(-0.0894326 0.0553164 0)
(-0.100852 0.0441438 0)
(-0.109383 0.030627 0)
(-0.114767 0.0155845 0)
(-0.11685 -0.000284425 0)
(-0.115556 -0.0163284 0)
(-0.110866 -0.0318589 0)
(-0.102845 -0.0460689 0)
(-0.0916891 -0.0579753 0)
(-0.0777959 -0.0664055 0)
(-0.0618512 -0.0700518 0)
(-0.044897 -0.0676105 0)
(-0.028346 -0.0580071 0)
(-0.0138707 -0.0406816 0)
(-0.00312582 -0.015865 0)
(-0.00370362 0.0201589 0)
(-0.016104 0.0503294 0)
(-0.0324469 0.0704443 0)
(-0.0508637 0.080958 0)
(-0.0695558 0.0830464 0)
(-0.0870732 0.0782417 0)
(-0.102392 0.0681287 0)
(-0.114867 0.0541435 0)
(-0.124127 0.0374815 0)
(-0.129977 0.0190973 0)
(-0.13231 -0.000232124 0)
(-0.131059 -0.0198038 0)
(-0.126173 -0.0388689 0)
(-0.117652 -0.056516 0)
(-0.105598 -0.0715796 0)
(-0.0903235 -0.0826012 0)
(-0.0724673 -0.0878747 0)
(-0.0531162 -0.0856041 0)
(-0.0338645 -0.0741879 0)
(-0.0167221 -0.0526012 0)
(-0.00378587 -0.020793 0)
(-0.00442938 0.0256895 0)
(-0.0191433 0.0633182 0)
(-0.038178 0.0876816 0)
(-0.059215 0.0997738 0)
(-0.0801446 0.101428 0)
(-0.0993816 0.0948078 0)
(-0.115908 0.0820196 0)
(-0.129167 0.0648757 0)
(-0.138911 0.0448066 0)
(-0.145057 0.0228861 0)
(-0.147574 -6.70528e-05 0)
(-0.146416 -0.0233447 0)
(-0.141502 -0.0461852 0)
(-0.132737 -0.0676108 0)
(-0.12009 -0.0862893 0)
(-0.103718 -0.100453 0)
(-0.0841381 -0.107917 0)
(-0.0624112 -0.106249 0)
(-0.0402769 -0.0931152 0)
(-0.0201153 -0.0667961 0)
(-0.00457957 -0.0267669 0)
(-0.00528619 0.0322834 0)
(-0.0226815 0.0784837 0)
(-0.0446541 0.107398 0)
(-0.0683291 0.120837 0)
(-0.0912694 0.121565 0)
(-0.111811 0.112588 0)
(-0.129029 0.0966642 0)
(-0.14255 0.0760399 0)
(-0.152326 0.0523836 0)
(-0.158447 0.0268561 0)
(-0.160996 0.000263578 0)
(-0.159973 -0.0267462 0)
(-0.155261 -0.0534674 0)
(-0.146654 -0.0789183 0)
(-0.133937 -0.101641 0)
(-0.117035 -0.119557 0)
(-0.0962325 -0.12993 0)
(-0.0724451 -0.12952 0)
(-0.0474671 -0.114991 0)
(-0.0240461 -0.0835889 0)
(-0.00551226 -0.0339981 0)
(-0.00627544 0.0401266 0)
(-0.026689 0.0960431 0)
(-0.0516833 0.12962 0)
(-0.0777174 0.143914 0)
(-0.102052 0.143002 0)
(-0.123059 0.131001 0)
(-0.14005 0.111464 0)
(-0.15296 0.0871149 0)
(-0.162041 0.0598414 0)
(-0.167617 0.0308357 0)
(-0.169931 0.000817258 0)
(-0.169053 -0.0297106 0)
(-0.164841 -0.0601885 0)
(-0.156965 -0.0897213 0)
(-0.144985 -0.116804 0)
(-0.128509 -0.139084 0)
(-0.107451 -0.153231 0)
(-0.0824023 -0.155021 0)
(-0.0550366 -0.13977 0)
(-0.0283879 -0.103202 0)
(-0.00656401 -0.0426975 0)
(-0.00737698 0.049402 0)
(-0.0310274 0.116091 0)
(-0.0588026 0.154095 0)
(-0.0864116 0.168369 0)
(-0.110926 0.164834 0)
(-0.130964 0.149034 0)
(-0.146279 0.125451 0)
(-0.157276 0.0972941 0)
(-0.164605 0.0666135 0)
(-0.168891 0.0345492 0)
(-0.170567 0.00164131 0)
(-0.169797 -0.0318492 0)
(-0.166434 -0.0656157 0)
(-0.160033 -0.0989682 0)
(-0.14991 -0.130477 0)
(-0.135288 -0.157619 0)
(-0.115563 -0.176492 0)
(-0.0907607 -0.181745 0)
(-0.0621437 -0.166945 0)
(-0.0328122 -0.12562 0)
(-0.00767132 -0.0530354 0)
(-0.00853003 0.0602606 0)
(-0.0353627 0.138476 0)
(-0.0650963 0.180085 0)
(-0.092699 0.192942 0)
(-0.115328 0.185511 0)
(-0.132196 0.165104 0)
(-0.143773 0.137202 0)
(-0.151099 0.105438 0)
(-0.155307 0.071911 0)
(-0.157345 0.0375932 0)
(-0.157851 0.00274308 0)
(-0.157093 -0.0327179 0)
(-0.154946 -0.0688437 0)
(-0.150888 -0.105284 0)
(-0.144023 -0.140854 0)
(-0.133168 -0.173045 0)
(-0.117088 -0.197526 0)
(-0.0949761 -0.207786 0)
(-0.0672546 -0.195258 0)
(-0.0366498 -0.15039 0)
(-0.00869375 -0.065078 0)
(-0.00958885 0.0727632 0)
(-0.038977 0.162589 0)
(-0.0688476 0.206063 0)
(-0.0936706 0.215456 0)
(-0.111241 0.202636 0)
(-0.12187 0.176947 0)
(-0.127055 0.144805 0)
(-0.128596 0.110078 0)
(-0.128112 0.0747292 0)
(-0.126839 0.0394242 0)
(-0.125572 0.00404381 0)
(-0.124675 -0.0319032 0)
(-0.124072 -0.0689122 0)
(-0.12324 -0.107096 0)
(-0.121168 -0.145712 0)
(-0.116359 -0.182547 0)
(-0.106934 -0.213152 0)
(-0.0910367 -0.230055 0)
(-0.0677349 -0.222327 0)
(-0.0386364 -0.176321 0)
(-0.00934779 -0.0786841 0)
(-0.0102121 0.0867557 0)
(-0.0403265 0.186987 0)
(-0.066821 0.229245 0)
(-0.0844102 0.232457 0)
(-0.0924691 0.212781 0)
(-0.093027 0.181601 0)
(-0.0888341 0.145929 0)
(-0.0824238 0.109513 0)
(-0.0757645 0.0739244 0)
(-0.0702246 0.0393809 0)
(-0.0666474 0.00532672 0)
(-0.0654352 -0.0291581 0)
(-0.0665891 -0.0650283 0)
(-0.0696864 -0.102928 0)
(-0.0737903 -0.142733 0)
(-0.07732 -0.182863 0)
(-0.0779586 -0.219271 0)
(-0.0728053 -0.244086 0)
(-0.0591317 -0.244229 0)
(-0.0363957 -0.201056 0)
(-0.00906295 -0.0933291 0)
(-0.00954866 0.101536 0)
(-0.0359466 0.208651 0)
(-0.0527347 0.244876 0)
(-0.0565062 0.238833 0)
(-0.0495122 0.21147 0)
(-0.0359564 0.175605 0)
(-0.0197336 0.138104 0)
(-0.00377767 0.102072 0)
(0.00994663 0.0684053 0)
(0.0202258 0.0367772 0)
(0.0263658 0.00621261 0)
(0.0280209 -0.0245621 0)
(0.0251107 -0.0568752 0)
(0.0178368 -0.0918601 0)
(0.00681021 -0.130086 0)
(-0.00670645 -0.170908 0)
(-0.0204727 -0.21133 0)
(-0.0310162 -0.24411 0)
(-0.0338522 -0.255063 0)
(-0.0253126 -0.220399 0)
(-0.00661863 -0.10775 0)
(-0.00525779 0.115099 0)
(-0.017615 0.22166 0)
(-0.013962 0.24534 0)
(0.00462055 0.227715 0)
(0.0321245 0.193618 0)
(0.0626002 0.155643 0)
(0.0918488 0.119356 0)
(0.117317 0.0866327 0)
(0.137629 0.0575051 0)
(0.152118 0.0311225 0)
(0.160481 0.00622386 0)
(0.162553 -0.0186301 0)
(0.158199 -0.0449304 0)
(0.147309 -0.0741009 0)
(0.129914 -0.107283 0)
(0.106461 -0.144864 0)
(0.0782773 -0.185453 0)
(0.0482223 -0.223787 0)
(0.0213109 -0.246797 0)
(0.00407094 -0.227355 0)
(0.000915373 -0.119243 0)
(0.0106017 0.121336 0)
(0.0351966 0.213851 0)
(0.0751859 0.218994 0)
(0.123943 0.1911 0)
(0.173914 0.154867 0)
(0.21992 0.119908 0)
(0.259335 0.0893206 0)
(0.291147 0.0634551 0)
(0.315223 0.0415675 0)
(0.331789 0.0225094 0)
(0.34111 0.00500323 0)
(0.343299 -0.0122666 0)
(0.338217 -0.0306396 0)
(0.325443 -0.0514783 0)
(0.304317 -0.0761202 0)
(0.274096 -0.10567 0)
(0.234297 -0.140376 0)
(0.185322 -0.177969 0)
(0.129577 -0.209582 0)
(0.0722961 -0.210037 0)
(0.0222648 -0.121498 0)
(0.0703796 0.107683 0)
(0.175859 0.16666 0)
(0.266348 0.153812 0)
(0.34221 0.124484 0)
(0.405262 0.0954758 0)
(0.456131 0.0708753 0)
(0.495982 0.0510853 0)
(0.526156 0.0353705 0)
(0.547951 0.022726 0)
(0.562437 0.0121507 0)
(0.570351 0.00271153 0)
(0.57204 -0.0064701 0)
(0.567418 -0.0162618 0)
(0.555918 -0.0275724 0)
(0.536439 -0.0413964 0)
(0.507263 -0.0588159 0)
(0.465938 -0.0808546 0)
(0.409026 -0.107825 0)
(0.331877 -0.137063 0)
(0.226594 -0.153722 0)
(0.0893769 -0.103216 0)
(0.344607 0.0279791 0)
(0.541056 0.0396148 0)
(0.649902 0.0390281 0)
(0.713581 0.0321031 0)
(0.756695 0.0242824 0)
(0.787061 0.0176134 0)
(0.808735 0.0123694 0)
(0.824061 0.00832828 0)
(0.83456 0.00516968 0)
(0.841229 0.00259138 0)
(0.844676 0.000328621 0)
(0.845186 -0.00185404 0)
(0.842735 -0.00417757 0)
(0.836969 -0.00686166 0)
(0.827116 -0.0101279 0)
(0.811787 -0.0141722 0)
(0.788484 -0.0190475 0)
(0.752259 -0.0243292 0)
(0.692597 -0.0282849 0)
(0.579175 -0.0277669 0)
(0.355765 -0.0277094 0)
)
;

boundaryField
{
    movingWall
    {
        type            fixedValue;
        value           uniform (1 0 0);
    }
    fixedWalls
    {
        type            noSlip;
    }
    frontAndBack
    {
        type            empty;
    }
}


// ************************************************************************* //
