/*--------------------------------*- C++ -*----------------------------------*\
| =========                 |                                                 |
| \\      /  F ield         | OpenFOAM: The Open Source CFD Toolbox           |
|  \\    /   O peration     | Version:  4.1                                   |
|   \\  /    A nd           | Web:      www.OpenFOAM.org                      |
|    \\/     M anipulation  |                                                 |
\*---------------------------------------------------------------------------*/
FoamFile
{
    version     2.0;
    format      ascii;
    class       volScalarField;
    location    "0.00072";
    object      p;
}
// * * * * * * * * * * * * * * * * * * * * * * * * * * * * * * * * * * * * * //

dimensions      [1 -1 -2 0 0 0 0];

internalField   nonuniform List<scalar> 
1681
(
100000
100000
100000
100000
100000
100000
100000
100001
100001
100001
100001
100002
100002
100002
100002
100003
100003
100004
100004
100004
100005
100005
100005
100006
100006
100007
100007
100007
100008
100008
100008
100008
100009
100009
100009
100009
100009
100010
100010
100010
100010
100000
100000
100000
100000
100000
100000
100000
100001
100001
100001
100001
100002
100002
100002
100002
100003
100003
100004
100004
100004
100005
100005
100005
100006
100006
100007
100007
100007
100008
100008
100008
100009
100009
100009
100009
100009
100009
100010
100010
100010
100010
100000
100000
100000
100000
100000
100000
100000
100001
100001
100001
100001
100001
100002
100002
100002
100003
100003
100004
100004
100004
100005
100005
100006
100006
100006
100007
100007
100007
100008
100008
100008
100009
100009
100009
100009
100009
100009
100010
100010
100010
100010
99999.9
99999.9
99999.9
100000
100000
100000
100000
100000
100001
100001
100001
100001
100002
100002
100002
100003
100003
100004
100004
100004
100005
100005
100006
100006
100006
100007
100007
100007
100008
100008
100008
100009
100009
100009
100009
100009
100010
100010
100010
100010
100010
99999.9
99999.8
99999.8
99999.9
99999.9
100000
100000
100000
100001
100001
100001
100001
100002
100002
100002
100003
100003
100003
100004
100004
100005
100005
100006
100006
100006
100007
100007
100007
100008
100008
100008
100009
100009
100009
100009
100009
100010
100010
100010
100010
100010
99999.8
99999.7
99999.7
99999.7
99999.8
99999.9
100000
100000
100000
100001
100001
100001
100002
100002
100002
100003
100003
100003
100004
100004
100005
100005
100006
100006
100006
100007
100007
100008
100008
100008
100009
100009
100009
100009
100009
100010
100010
100010
100010
100010
100010
99999.5
99999.5
99999.5
99999.5
99999.6
99999.7
99999.9
100000
100000
100001
100001
100001
100001
100002
100002
100003
100003
100003
100004
100004
100005
100005
100006
100006
100006
100007
100007
100008
100008
100008
100009
100009
100009
100009
100010
100010
100010
100010
100010
100010
100010
99999.2
99999.2
99999.2
99999.3
99999.4
99999.5
99999.7
99999.9
100000
100000
100001
100001
100001
100002
100002
100003
100003
100003
100004
100004
100005
100005
100006
100006
100006
100007
100007
100008
100008
100008
100009
100009
100009
100010
100010
100010
100010
100010
100010
100010
100010
99998.9
99998.9
99998.9
99999
99999.1
99999.2
99999.4
99999.6
99999.9
100000
100000
100001
100001
100002
100002
100002
100003
100003
100004
100004
100005
100005
100006
100006
100007
100007
100007
100008
100008
100009
100009
100009
100010
100010
100010
100010
100010
100011
100011
100011
100011
99998.4
99998.5
99998.6
99998.6
99998.8
99998.9
99999.1
99999.3
99999.6
99999.9
100000
100001
100001
100001
100002
100002
100003
100003
100004
100004
100005
100005
100006
100006
100007
100007
100008
100008
100008
100009
100009
100010
100010
100010
100010
100011
100011
100011
100011
100011
100011
99998.1
99998.1
99998.2
99998.3
99998.4
99998.6
99998.8
99999
99999.3
99999.6
100000
100000
100001
100001
100002
100002
100003
100003
100004
100004
100005
100005
100006
100006
100007
100007
100008
100008
100009
100009
100009
100010
100010
100010
100011
100011
100011
100011
100011
100011
100011
99998
99997.8
99997.8
99997.9
99998
99998.2
99998.4
99998.7
99999
99999.3
99999.7
100000
100001
100001
100001
100002
100002
100003
100004
100004
100005
100005
100006
100006
100007
100007
100008
100008
100009
100009
100010
100010
100010
100011
100011
100011
100011
100012
100012
100012
100012
99997.5
99997.3
99997.3
99997.4
99997.5
99997.7
99998
99998.2
99998.6
99998.9
99999.3
99999.8
100000
100001
100001
100002
100002
100003
100003
100004
100005
100005
100006
100006
100007
100008
100008
100009
100009
100010
100010
100010
100011
100011
100011
100012
100012
100012
100012
100012
100012
99996.7
99996.7
99996.7
99996.8
99997
99997.2
99997.5
99997.8
99998.2
99998.5
99999
99999.4
99999.9
100000
100001
100002
100002
100003
100003
100004
100005
100005
100006
100007
100007
100008
100008
100009
100009
100010
100010
100011
100011
100012
100012
100012
100012
100013
100013
100013
100013
99995.7
99995.9
99996.1
99996.2
99996.4
99996.7
99997
99997.3
99997.7
99998.1
99998.6
99999.1
99999.6
100000
100001
100001
100002
100003
100003
100004
100005
100005
100006
100007
100007
100008
100009
100009
100010
100010
100011
100011
100012
100012
100012
100013
100013
100013
100013
100013
100013
99995
99995.2
99995.4
99995.6
99995.8
99996.1
99996.4
99996.8
99997.2
99997.6
99998.1
99998.7
99999.2
99999.8
100000
100001
100002
100003
100003
100004
100005
100005
100006
100007
100008
100008
100009
100010
100010
100011
100011
100012
100012
100013
100013
100013
100014
100014
100014
100014
100014
99994.5
99994.6
99994.7
99994.9
99995.1
99995.4
99995.8
99996.2
99996.6
99997.1
99997.6
99998.2
99998.8
99999.5
100000
100001
100002
100002
100003
100004
100005
100005
100006
100007
100008
100008
100009
100010
100011
100011
100012
100012
100013
100013
100014
100014
100014
100014
100015
100015
100015
99993.8
99993.9
99994
99994.2
99994.4
99994.7
99995.1
99995.5
99996
99996.5
99997.1
99997.7
99998.4
99999.1
99999.8
100001
100001
100002
100003
100004
100005
100005
100006
100007
100008
100009
100009
100010
100011
100012
100012
100013
100013
100014
100014
100015
100015
100015
100015
100015
100015
99993
99993.1
99993.2
99993.4
99993.6
99994
99994.4
99994.8
99995.3
99995.9
99996.5
99997.2
99997.9
99998.7
99999.5
100000
100001
100002
100003
100004
100005
100006
100006
100007
100008
100009
100010
100011
100011
100012
100013
100013
100014
100015
100015
100015
100016
100016
100016
100016
100016
99992.1
99992.2
99992.3
99992.5
99992.8
99993.1
99993.6
99994
99994.6
99995.2
99995.9
99996.6
99997.4
99998.2
99999.1
99999.9
100001
100002
100003
100004
100005
100006
100007
100007
100008
100009
100010
100011
100012
100013
100013
100014
100015
100015
100016
100016
100017
100017
100017
100017
100017
99991.1
99991.2
99991.3
99991.5
99991.8
99992.2
99992.7
99993.2
99993.8
99994.5
99995.2
99996
99996.9
99997.7
99998.6
99999.6
100001
100002
100003
100004
100005
100006
100007
100008
100009
100010
100011
100012
100012
100013
100014
100015
100016
100016
100017
100017
100018
100018
100018
100018
100018
99990.1
99990.1
99990.2
99990.5
99990.8
99991.2
99991.7
99992.3
99993
99993.7
99994.5
99995.4
99996.3
99997.2
99998.2
99999.2
100000
100001
100002
100003
100005
100006
100007
100008
100009
100010
100011
100012
100013
100014
100015
100016
100016
100017
100018
100018
100019
100019
100019
100019
100019
99988.8
99988.9
99989
99989.3
99989.7
99990.1
99990.7
99991.3
99992.1
99992.8
99993.7
99994.6
99995.6
99996.6
99997.7
99998.8
99999.9
100001
100002
100003
100005
100006
100007
100008
100009
100010
100011
100013
100014
100015
100016
100017
100017
100018
100019
100019
100020
100020
100021
100021
100021
99987.5
99987.6
99987.7
99988
99988.4
99988.9
99989.5
99990.3
99991.1
99991.9
99992.9
99993.9
99994.9
99996
99997.2
99998.3
99999.5
100001
100002
100003
100004
100006
100007
100008
100010
100011
100012
100013
100014
100015
100016
100017
100018
100019
100020
100021
100021
100022
100022
100022
100022
99986.1
99986.1
99986.3
99986.6
99987.1
99987.6
99988.3
99989.1
99990
99990.9
99992
99993.1
99994.2
99995.4
99996.6
99997.9
99999.2
100000
100002
100003
100004
100006
100007
100008
100010
100011
100012
100014
100015
100016
100017
100018
100019
100020
100021
100022
100023
100023
100023
100024
100024
99984.5
99984.5
99984.7
99985.1
99985.6
99986.2
99987
99987.8
99988.8
99989.9
99991
99992.2
99993.4
99994.7
99996
99997.4
99998.8
100000
100002
100003
100004
100006
100007
100009
100010
100012
100013
100014
100016
100017
100018
100020
100021
100022
100023
100023
100024
100025
100025
100025
100025
99982.7
99982.8
99983
99983.4
99984
99984.7
99985.5
99986.5
99987.6
99988.7
99990
99991.2
99992.6
99994
99995.4
99996.9
99998.3
99999.8
100001
100003
100004
100006
100007
100009
100010
100012
100013
100015
100016
100018
100019
100021
100022
100023
100024
100025
100026
100027
100027
100027
100027
99980.7
99980.8
99981.1
99981.6
99982.2
99983
99984
99985
99986.2
99987.5
99988.9
99990.3
99991.7
99993.2
99994.8
99996.3
99997.9
99999.5
100001
100003
100004
100006
100008
100009
100011
100012
100014
100016
100017
100019
100020
100022
100023
100025
100026
100027
100028
100029
100029
100029
100029
99978.6
99978.7
99979
99979.6
99980.3
99981.2
99982.3
99983.5
99984.8
99986.2
99987.7
99989.2
99990.8
99992.5
99994.1
99995.8
99997.5
99999.1
100001
100003
100004
100006
100008
100009
100011
100013
100015
100016
100018
100020
100022
100023
100025
100026
100028
100029
100030
100031
100031
100032
100032
99976.2
99976.3
99976.7
99977.3
99978.2
99979.2
99980.4
99981.8
99983.3
99984.8
99986.5
99988.2
99989.9
99991.7
99993.5
99995.2
99997
99998.8
100001
100002
100004
100006
100008
100010
100011
100013
100015
100017
100019
100021
100023
100024
100026
100028
100030
100031
100032
100033
100034
100034
100034
99973.5
99973.7
99974.1
99974.9
99975.9
99977.1
99978.5
99980
99981.6
99983.4
99985.2
99987
99989
99990.9
99992.8
99994.7
99996.6
99998.4
100000
100002
100004
100006
100008
100010
100012
100014
100016
100018
100020
100022
100024
100026
100028
100030
100032
100033
100035
100036
100037
100037
100038
99970.5
99970.7
99971.3
99972.2
99973.4
99974.8
99976.4
99978.1
99979.9
99981.9
99983.9
99985.9
99988
99990.1
99992.1
99994.2
99996.2
99998.1
100000
100002
100004
100006
100008
100010
100012
100014
100016
100018
100021
100023
100025
100027
100030
100032
100034
100036
100037
100039
100040
100041
100041
99967.1
99967.4
99968.1
99969.2
99970.6
99972.3
99974.1
99976.1
99978.1
99980.3
99982.5
99984.7
99987
99989.3
99991.5
99993.7
99995.8
99997.8
99999.8
100002
100004
100006
100008
100010
100012
100014
100017
100019
100021
100024
100026
100029
100031
100034
100036
100038
100040
100042
100044
100045
100045
99963.1
99963.5
99964.5
99965.9
99967.6
99969.6
99971.7
99974
99976.3
99978.6
99981.1
99983.5
99986.1
99988.6
99991
99993.3
99995.4
99997.5
99999.5
100002
100004
100006
100008
100010
100012
100015
100017
100019
100022
100025
100027
100030
100033
100036
100039
100041
100044
100046
100048
100049
100050
99958.5
99959.1
99960.4
99962.2
99964.3
99966.7
99969.2
99971.8
99974.4
99977
99979.6
99982.2
99985.1
99987.9
99990.6
99993
99995.2
99997.2
99999.2
100001
100003
100006
100008
100010
100013
100015
100017
100020
100022
100025
100028
100032
100035
100038
100041
100044
100047
100050
100053
100055
100056
99953
99954
99955.7
99958.1
99960.8
99963.8
99966.7
99969.6
99972.5
99975.2
99978
99980.9
99984.2
99987.4
99990.3
99992.9
99995.1
99997.1
99998.9
100001
100003
100005
100008
100010
100013
100015
100017
100020
100023
100026
100029
100033
100037
100040
100043
100047
100051
100055
100059
100062
100063
99946.3
99947.8
99950.4
99953.6
99957.2
99960.7
99964.2
99967.5
99970.6
99973.5
99976.4
99979.3
99983.3
99987.2
99990.4
99993.1
99995.2
99997
99998.4
100000
100003
100005
100008
100010
100013
100015
100017
100020
100023
100026
100030
100034
100038
100042
100046
100050
100054
100059
100066
100070
100073
99937.5
99940.3
99944.2
99948.8
99953.4
99957.8
99961.9
99965.6
99968.9
99971.8
99974.6
99977.2
99982.3
99987.2
99990.9
99993.7
99995.7
99997.1
99997.8
99999.7
100002
100005
100007
100010
100013
100015
100017
100019
100022
100026
100031
100036
100040
100044
100048
100052
100056
100064
100073
100081
100086
99925.1
99930.8
99937.2
99943.8
99949.8
99955.2
99959.9
99964
99967.4
99970.1
99972.3
99973.8
99981.1
99988
99992.3
99995
99996.4
99996.9
99996.1
99998.2
100001
100004
100007
100011
100014
100015
100016
100019
100021
100025
100031
100037
100042
100046
100049
100053
100056
100066
100082
100096
100106
99906.9
99919.4
99930
99939.2
99946.8
99953.2
99958.5
99963
99966.5
99968.8
99970.2
99969.4
99980.7
99989.8
99994.2
99996.6
99997.5
99997.3
99994.4
99997.9
100001
100004
100006
100011
100015
100014
100016
100018
100020
100024
100032
100039
100044
100047
100050
100053
100054
100067
100092
100116
100137
99872.6
99904.7
99923.1
99935.8
99945.1
99952.2
99957.8
99962.1
99965.1
99965.8
99963.4
99956.5
99988.7
99997.6
99998.7
99998.2
99996.4
99991.9
99982
99994.5
100003
100005
100009
100017
100015
100007
100014
100019
100021
100027
100041
100045
100046
100048
100048
100046
100040
100071
100118
100148
100184
)
;

boundaryField
{
    movingWall
    {
        type            zeroGradient;
    }
    fixedWalls
    {
        type            zeroGradient;
    }
    frontAndBack
    {
        type            empty;
    }
}


// ************************************************************************* //
