/*--------------------------------*- C++ -*----------------------------------*\
| =========                 |                                                 |
| \\      /  F ield         | OpenFOAM: The Open Source CFD Toolbox           |
|  \\    /   O peration     | Version:  4.1                                   |
|   \\  /    A nd           | Web:      www.OpenFOAM.org                      |
|    \\/     M anipulation  |                                                 |
\*---------------------------------------------------------------------------*/
FoamFile
{
    version     2.0;
    format      ascii;
    class       volVectorField;
    location    "5.75";
    object      U;
}
// * * * * * * * * * * * * * * * * * * * * * * * * * * * * * * * * * * * * * //

dimensions      [0 1 -1 0 0 0 0];

internalField   nonuniform List<vector> 
400
(
(0.00017634 -0.000173488 0)
(-0.000120841 9.00514e-05 0)
(-0.0014912 0.00031918 0)
(-0.00355225 0.000486871 0)
(-0.00608656 0.000567712 0)
(-0.00878193 0.000593654 0)
(-0.0114322 0.000569675 0)
(-0.0138153 0.000500138 0)
(-0.0157239 0.000379594 0)
(-0.0169414 0.000206085 0)
(-0.0172752 -1.51349e-05 0)
(-0.0165924 -0.000264679 0)
(-0.0148692 -0.000508635 0)
(-0.012239 -0.000700274 0)
(-0.00900039 -0.000793262 0)
(-0.00561993 -0.000748763 0)
(-0.00260993 -0.000566291 0)
(-0.000501579 -0.00026237 0)
(0.000472991 5.10271e-05 0)
(0.000291426 0.000276808 0)
(-9.17706e-05 0.000111861 0)
(-0.00194366 0.00183908 0)
(-0.00605396 0.0034284 0)
(-0.0115832 0.00456068 0)
(-0.018068 0.00513672 0)
(-0.024837 0.00524251 0)
(-0.0313831 0.00491574 0)
(-0.0371696 0.00417551 0)
(-0.0416975 0.00301921 0)
(-0.0444814 0.00147049 0)
(-0.0451182 -0.000388705 0)
(-0.0433598 -0.00239065 0)
(-0.0392017 -0.00428159 0)
(-0.0329652 -0.00574748 0)
(-0.0253052 -0.00648244 0)
(-0.0172077 -0.0062635 0)
(-0.00975726 -0.00507557 0)
(-0.00407558 -0.00311456 0)
(-0.000688586 -0.000993877 0)
(0.000152919 0.000505087 0)
(-0.00039126 0.00159626 0)
(-0.00403903 0.00605975 0)
(-0.0108957 0.0098028 0)
(-0.0195925 0.0123693 0)
(-0.0294754 0.0136314 0)
(-0.0396205 0.0137224 0)
(-0.0493172 0.0127153 0)
(-0.0578125 0.0106519 0)
(-0.0644109 0.00755736 0)
(-0.0684512 0.00352745 0)
(-0.0693963 -0.00120533 0)
(-0.0669199 -0.00622372 0)
(-0.0610117 -0.0109296 0)
(-0.0520799 -0.0146045 0)
(-0.0409694 -0.0165498 0)
(-0.0289841 -0.0162593 0)
(-0.0176009 -0.0136709 0)
(-0.00843374 -0.00923142 0)
(-0.00233031 -0.00419153 0)
(-3.0062e-05 -0.000121916 0)
(-0.000682943 0.00414738 0)
(-0.00608879 0.01246 0)
(-0.0155786 0.0188956 0)
(-0.0272003 0.0231064 0)
(-0.0401201 0.0250624 0)
(-0.0532152 0.0249814 0)
(-0.0656461 0.022985 0)
(-0.076522 0.0191431 0)
(-0.0850228 0.0135191 0)
(-0.0903656 0.00629794 0)
(-0.0919007 -0.00211244 0)
(-0.0891995 -0.0110112 0)
(-0.0821694 -0.0194059 0)
(-0.0711841 -0.0260998 0)
(-0.0571359 -0.0298973 0)
(-0.0415316 -0.0298864 0)
(-0.0261914 -0.0258494 0)
(-0.0132952 -0.018436 0)
(-0.00414851 -0.00955623 0)
(-0.000212304 -0.00160708 0)
(-0.000932584 0.0077409 0)
(-0.00793837 0.02102 0)
(-0.0198584 0.0306785 0)
(-0.0341652 0.0367171 0)
(-0.0498542 0.0393536 0)
(-0.0656403 0.038953 0)
(-0.0806083 0.035711 0)
(-0.0937893 0.0297302 0)
(-0.104289 0.0211098 0)
(-0.11123 0.0101159 0)
(-0.113844 -0.0026784 0)
(-0.111547 -0.0162937 0)
(-0.104064 -0.0293266 0)
(-0.0915964 -0.0400386 0)
(-0.0749409 -0.0466064 0)
(-0.0557062 -0.0475174 0)
(-0.0360509 -0.0421823 0)
(-0.0188757 -0.0313099 0)
(-0.00616374 -0.0174752 0)
(-0.000379611 -0.00403759 0)
(-0.00114869 0.0122222 0)
(-0.00955623 0.0314615 0)
(-0.0236308 0.0448155 0)
(-0.0403285 0.0528407 0)
(-0.0584976 0.0561551 0)
(-0.0767301 0.0553482 0)
(-0.0940819 0.0507244 0)
(-0.109558 0.0424208 0)
(-0.122233 0.0305534 0)
(-0.131163 0.0154306 0)
(-0.135453 -0.00226212 0)
(-0.134317 -0.0213222 0)
(-0.127198 -0.0399651 0)
(-0.113983 -0.0558771 0)
(-0.0951908 -0.0664631 0)
(-0.0723744 -0.0693377 0)
(-0.0479685 -0.0631817 0)
(-0.0257433 -0.04847 0)
(-0.00864994 -0.0283943 0)
(-0.000581653 -0.00752944 0)
(-0.00132456 0.0174742 0)
(-0.0108952 0.043546 0)
(-0.0267767 0.0610237 0)
(-0.0454909 0.071196 0)
(-0.0657701 0.0752234 0)
(-0.0861264 0.0739996 0)
(-0.10563 0.0679775 0)
(-0.123309 0.05733 0)
(-0.138257 0.0421607 0)
(-0.149502 0.0227611 0)
(-0.156041 -0.000157136 0)
(-0.156871 -0.025268 0)
(-0.151093 -0.0504916 0)
(-0.138139 -0.0729585 0)
(-0.118042 -0.0891814 0)
(-0.0920399 -0.0955808 0)
(-0.0626375 -0.0895834 0)
(-0.0345178 -0.0709036 0)
(-0.0119332 -0.0431374 0)
(-0.00086719 -0.0124075 0)
(-0.00145664 0.0233303 0)
(-0.0119111 0.0569324 0)
(-0.0291729 0.0788821 0)
(-0.04942 0.0913386 0)
(-0.0712977 0.0961342 0)
(-0.0932822 0.0945466 0)
(-0.114498 0.087223 0)
(-0.134052 0.0743773 0)
(-0.151114 0.0560718 0)
(-0.164747 0.0325127 0)
(-0.173904 0.00433091 0)
(-0.177409 -0.0271667 0)
(-0.174023 -0.0597594 0)
(-0.162643 -0.0901388 0)
(-0.142605 -0.113902 0)
(-0.114468 -0.125983 0)
(-0.0803903 -0.121884 0)
(-0.0457546 -0.0996855 0)
(-0.0163847 -0.0627907 0)
(-0.00130278 -0.0191692 0)
(-0.00154198 0.0296192 0)
(-0.0125692 0.0712483 0)
(-0.0307113 0.0979065 0)
(-0.0518858 0.112722 0)
(-0.074672 0.118317 0)
(-0.0975529 0.116435 0)
(-0.119745 0.107971 0)
(-0.140489 0.0931993 0)
(-0.159102 0.0721232 0)
(-0.174771 0.0448056 0)
(-0.186511 0.0116896 0)
(-0.193093 -0.0261035 0)
(-0.193034 -0.0664347 0)
(-0.184714 -0.105802 0)
(-0.166635 -0.139047 0)
(-0.138283 -0.159491 0)
(-0.10084 -0.160009 0)
(-0.0597507 -0.135779 0)
(-0.0223834 -0.0886835 0)
(-0.00197129 -0.0285376 0)
(-0.00158708 0.036142 0)
(-0.0128841 0.0860524 0)
(-0.0313665 0.117496 0)
(-0.0527551 0.134621 0)
(-0.0755727 0.140964 0)
(-0.0983546 0.138806 0)
(-0.120446 0.129367 0)
(-0.141281 0.11301 0)
(-0.160398 0.0896902 0)
(-0.177214 0.0592968 0)
(-0.190945 0.0220021 0)
(-0.200482 -0.0214186 0)
(-0.204292 -0.0691715 0)
(-0.200395 -0.117935 0)
(-0.186488 -0.162196 0)
(-0.160694 -0.193877 0)
(-0.122505 -0.202748 0)
(-0.07629 -0.17953 0)
(-0.0302825 -0.12217 0)
(-0.00298859 -0.0414618 0)
(-0.00162494 0.0427704 0)
(-0.0129674 0.100964 0)
(-0.0312666 0.137048 0)
(-0.0520872 0.156222 0)
(-0.0738957 0.163082 0)
(-0.0953432 0.160532 0)
(-0.115944 0.1502 0)
(-0.135393 0.132587 0)
(-0.153517 0.107639 0)
(-0.170063 0.0750741 0)
(-0.184589 0.0347595 0)
(-0.196294 -0.0129929 0)
(-0.203854 -0.066983 0)
(-0.205216 -0.12451 0)
(-0.197535 -0.180342 0)
(-0.177547 -0.225677 0)
(-0.142529 -0.247273 0)
(-0.0942853 -0.230029 0)
(-0.0403057 -0.164277 0)
(-0.00451629 -0.059132 0)
(-0.00171988 0.0493988 0)
(-0.013098 0.115593 0)
(-0.0308112 0.155882 0)
(-0.0502815 0.176546 0)
(-0.0699211 0.18345 0)
(-0.0886114 0.1802 0)
(-0.106096 0.168925 0)
(-0.122406 0.150321 0)
(-0.137716 0.124373 0)
(-0.152181 0.0906719 0)
(-0.165795 0.0487939 0)
(-0.178228 -0.00145319 0)
(-0.188611 -0.0596258 0)
(-0.195182 -0.124042 0)
(-0.195026 -0.190489 0)
(-0.183852 -0.250561 0)
(-0.156708 -0.288975 0)
(-0.11142 -0.284376 0)
(-0.0523343 -0.215069 0)
(-0.00677045 -0.0829127 0)
(-0.00202854 0.0563559 0)
(-0.0137871 0.130016 0)
(-0.030688 0.173633 0)
(-0.0480581 0.194734 0)
(-0.064274 0.200825 0)
(-0.078654 0.196283 0)
(-0.0912544 0.183825 0)
(-0.102542 0.164371 0)
(-0.113077 0.137993 0)
(-0.123455 0.104202 0)
(-0.134151 0.0623398 0)
(-0.145378 0.0117538 0)
(-0.156905 -0.0478948 0)
(-0.167588 -0.11617 0)
(-0.175041 -0.190513 0)
(-0.174644 -0.264253 0)
(-0.159927 -0.321943 0)
(-0.123943 -0.33728 0)
(-0.0655226 -0.272859 0)
(-0.0100045 -0.114211 0)
(-0.0027963 0.0638931 0)
(-0.0159852 0.144095 0)
(-0.0321248 0.189626 0)
(-0.0466664 0.209564 0)
(-0.0580143 0.213628 0)
(-0.0663319 0.206982 0)
(-0.0721142 0.192986 0)
(-0.0763957 0.172757 0)
(-0.0801396 0.146465 0)
(-0.0843802 0.113577 0)
(-0.0900424 0.0732792 0)
(-0.0978748 0.0245659 0)
(-0.108346 -0.0335603 0)
(-0.121138 -0.101879 0)
(-0.134946 -0.179796 0)
(-0.145682 -0.263554 0)
(-0.146777 -0.339974 0)
(-0.126745 -0.381193 0)
(-0.0777717 -0.333267 0)
(-0.0144275 -0.153969 0)
(-0.00456599 0.0742526 0)
(-0.0209399 0.159477 0)
(-0.0362991 0.204323 0)
(-0.0469896 0.220324 0)
(-0.051583 0.220434 0)
(-0.0517411 0.210494 0)
(-0.048535 0.194433 0)
(-0.0437182 0.173428 0)
(-0.0386408 0.147681 0)
(-0.034737 0.116606 0)
(-0.0333058 0.0792878 0)
(-0.0355494 0.0345083 0)
(-0.0425937 -0.0191641 0)
(-0.054982 -0.0834433 0)
(-0.0728576 -0.159569 0)
(-0.0934134 -0.247281 0)
(-0.111836 -0.338018 0)
(-0.11346 -0.407393 0)
(-0.085012 -0.388834 0)
(-0.0199913 -0.20222 0)
(-0.00818075 0.0875942 0)
(-0.0311888 0.175125 0)
(-0.045045 0.215557 0)
(-0.0496823 0.2242 0)
(-0.0441694 0.218304 0)
(-0.0329656 0.204063 0)
(-0.017837 0.185683 0)
(-0.0014051 0.164156 0)
(0.0146854 0.139577 0)
(0.0286988 0.111275 0)
(0.0390927 0.0782778 0)
(0.044347 0.0392991 0)
(0.0428158 -0.00726238 0)
(0.033218 -0.0635955 0)
(0.0139 -0.132224 0)
(-0.0140195 -0.216089 0)
(-0.0492738 -0.312704 0)
(-0.0763211 -0.406667 0)
(-0.0804865 -0.428072 0)
(-0.0258137 -0.255728 0)
(-0.0147526 0.114238 0)
(-0.0462508 0.196461 0)
(-0.0540137 0.224382 0)
(-0.0470772 0.219257 0)
(-0.0258088 0.204183 0)
(0.00117466 0.184494 0)
(0.0316192 0.163773 0)
(0.0621234 0.142326 0)
(0.0909912 0.119845 0)
(0.116397 0.0954905 0)
(0.136758 0.0682326 0)
(0.150432 0.0368332 0)
(0.15548 -0.0002577 0)
(0.15011 -0.0452232 0)
(0.131432 -0.101131 0)
(0.0988556 -0.172932 0)
(0.0489911 -0.264123 0)
(-0.00460044 -0.372352 0)
(-0.0527189 -0.437806 0)
(-0.0286361 -0.308992 0)
(-0.0256505 0.142161 0)
(-0.0660966 0.208881 0)
(-0.0493912 0.215559 0)
(-0.0170555 0.193664 0)
(0.0305143 0.169763 0)
(0.0793635 0.146541 0)
(0.128261 0.125612 0)
(0.173911 0.106335 0)
(0.215278 0.0878415 0)
(0.250994 0.0691598 0)
(0.279842 0.0492782 0)
(0.300387 0.0271471 0)
(0.31075 0.00148308 0)
(0.308906 -0.0294278 0)
(0.291306 -0.0683769 0)
(0.255868 -0.120344 0)
(0.194819 -0.192683 0)
(0.11716 -0.295953 0)
(0.0169411 -0.394931 0)
(-0.017326 -0.338544 0)
(-0.0186714 0.214911 0)
(-0.0196917 0.215468 0)
(0.0564089 0.181224 0)
(0.127844 0.139612 0)
(0.203894 0.109553 0)
(0.271228 0.0873244 0)
(0.332064 0.0702647 0)
(0.38509 0.0565977 0)
(0.430704 0.0448412 0)
(0.468647 0.0339842 0)
(0.498497 0.0231736 0)
(0.519413 0.0116872 0)
(0.530031 -0.00130805 0)
(0.528543 -0.0167867 0)
(0.511737 -0.0367333 0)
(0.476607 -0.0645451 0)
(0.413414 -0.108425 0)
(0.323112 -0.186651 0)
(0.172689 -0.296491 0)
(0.0428695 -0.334969 0)
(0.211418 0.129668 0)
(0.297546 0.101037 0)
(0.451464 0.0674606 0)
(0.543377 0.0442163 0)
(0.617766 0.0289401 0)
(0.673214 0.0197035 0)
(0.716728 0.0137359 0)
(0.751018 0.00974422 0)
(0.778099 0.00682476 0)
(0.798974 0.00447295 0)
(0.814058 0.00235204 0)
(0.823265 0.000239965 0)
(0.826056 -0.00208495 0)
(0.821391 -0.00480802 0)
(0.807362 -0.00847153 0)
(0.780966 -0.0136677 0)
(0.734159 -0.0229017 0)
(0.658526 -0.0407488 0)
(0.498121 -0.074393 0)
(0.28834 -0.136236 0)
)
;

boundaryField
{
    movingWall
    {
        type            fixedValue;
        value           uniform (1 0 0);
    }
    fixedWalls
    {
        type            noSlip;
    }
    frontAndBack
    {
        type            empty;
    }
}


// ************************************************************************* //
