/*--------------------------------*- C++ -*----------------------------------*\
| =========                 |                                                 |
| \\      /  F ield         | OpenFOAM: The Open Source CFD Toolbox           |
|  \\    /   O peration     | Version:  4.1                                   |
|   \\  /    A nd           | Web:      www.OpenFOAM.org                      |
|    \\/     M anipulation  |                                                 |
\*---------------------------------------------------------------------------*/
FoamFile
{
    version     2.0;
    format      ascii;
    class       volScalarField;
    location    "0.005";
    object      p;
}
// * * * * * * * * * * * * * * * * * * * * * * * * * * * * * * * * * * * * * //

dimensions      [1 -1 -2 0 0 0 0];

internalField   nonuniform List<scalar> 
441
(
100000
99999.9
99999.7
99999.9
99999.9
99999.5
99999.9
100000
100000
100001
100001
100001
100001
100001
100001
100001
100001
100001
100001
100001
100001
100000
100000
100000
100000
100000
100000
100000
100000
100000
100000
100000
100000
100000
100000
100000
100001
100000
100001
100000
100001
100000
100000
99999.9
100000
99999.9
100000
99999.9
100000
100000
100000
100001
100001
100001
100001
100001
100001
100001
100001
100001
100001
100001
100001
100000
100000
100000
100000
100000
100000
100000
100000
100000
100000
100000
100000
100000
100001
100001
100001
100001
100001
100001
100001
100000
100000
99999.7
99999.9
99999.7
99999.9
99999.9
100000
100000
100000
100000
100000
100001
100001
100001
100001
100001
100001
100001
100001
100001
100001
99999.1
99999.7
99999.5
99999.7
99999.7
99999.8
99999.9
100000
100000
100000
100000
100000
100001
100001
100001
100001
100001
100001
100001
100001
100000
99998.8
99999.1
99999.1
99999.3
99999.4
99999.5
99999.7
99999.8
100000
100000
100000
100001
100001
100001
100001
100001
100001
100001
100001
100002
100000
99998.9
99998.9
99998.9
99999.1
99999.1
99999.3
99999.5
99999.7
99999.9
100000
100000
100001
100001
100001
100001
100001
100001
100002
100001
100002
100001
99998.2
99998.2
99998.3
99998.4
99998.6
99998.8
99999.1
99999.4
99999.7
100000
100000
100001
100001
100001
100002
100002
100002
100002
100002
100002
100001
99997.9
99997.9
99997.9
99998.1
99998.2
99998.5
99998.8
99999.1
99999.5
99999.9
100000
100001
100001
100001
100002
100002
100002
100002
100002
100003
100001
99996.9
99996.9
99996.9
99997.2
99997.4
99997.8
99998.1
99998.6
99999.1
99999.7
100000
100001
100001
100002
100002
100003
100003
100003
100003
100004
100004
99996.4
99996.4
99996.4
99996.7
99996.9
99997.4
99997.7
99998.3
99998.8
99999.4
100000
100001
100001
100002
100003
100003
100003
100004
100004
100004
100004
99994.9
99994.9
99994.9
99995.4
99995.6
99996.3
99996.8
99997.5
99998.2
99999.1
100000
100001
100002
100003
100004
100004
100005
100005
100005
100006
100003
99994.4
99994.4
99994.3
99994.8
99995
99995.7
99996.1
99997
99997.8
99998.7
99999.7
100001
100002
100003
100004
100004
100005
100006
100006
100006
100005
99991.7
99992
99991.9
99992.9
99993.1
99994.2
99994.8
99996
99997
99998.2
99999.5
100001
100002
100003
100005
100006
100008
100008
100009
100009
100006
99991.4
99991.7
99991.3
99992.3
99992.3
99993.6
99994.1
99995.4
99996.4
99997.6
99999
100000
100002
100003
100005
100006
100008
100008
100009
100009
100003
99986.4
99987.9
99987.2
99989.5
99989.6
99991.7
99992.4
99994.2
99995.5
99997
99998.7
100000
100002
100003
100006
100007
100012
100011
100018
100013
100029
99986.6
99988.1
99986.8
99989
99988.8
99990.9
99991.6
99993.5
99994.8
99996.4
99998.2
99999.5
100002
100003
100006
100006
100011
100011
100018
100017
100027
99974.7
99982
99980
99985.4
99985.3
99988.9
99989.9
99992.4
99994
99995.9
99997.9
99999.3
100002
100003
100007
100007
100014
100014
100025
100026
100040
99975.2
99983.5
99980.7
99985.4
99985.1
99988.5
99989.5
99992
99993.6
99995.5
99997.5
99998.9
100001
100002
100006
100006
100012
100012
100023
100026
100045
99933.2
99976.1
99974.2
99984.7
99984.2
99988.6
99989.5
99992.2
99993.8
99995.7
99997.7
99999
100002
100003
100007
100007
100015
100016
100036
100044
100100
)
;

boundaryField
{
    movingWall
    {
        type            zeroGradient;
    }
    fixedWalls
    {
        type            zeroGradient;
    }
    frontAndBack
    {
        type            empty;
    }
}


// ************************************************************************* //
