/*--------------------------------*- C++ -*----------------------------------*\
| =========                 |                                                 |
| \\      /  F ield         | OpenFOAM: The Open Source CFD Toolbox           |
|  \\    /   O peration     | Version:  4.1                                   |
|   \\  /    A nd           | Web:      www.OpenFOAM.org                      |
|    \\/     M anipulation  |                                                 |
\*---------------------------------------------------------------------------*/
FoamFile
{
    version     2.0;
    format      ascii;
    class       volVectorField;
    location    "2.5";
    object      U;
}
// * * * * * * * * * * * * * * * * * * * * * * * * * * * * * * * * * * * * * //

dimensions      [0 1 -1 0 0 0 0];

internalField   nonuniform List<vector> 
400
(
(0.000101983 -9.9467e-05 0)
(-0.000231371 0.000112383 0)
(-0.00138214 0.000283761 0)
(-0.00301724 0.000400275 0)
(-0.00495732 0.000447164 0)
(-0.00696062 0.000450781 0)
(-0.00887859 0.000418463 0)
(-0.010566 0.000357602 0)
(-0.0119022 0.000267783 0)
(-0.0127666 0.000148964 0)
(-0.0130508 2.97216e-06 0)
(-0.0126723 -0.000161788 0)
(-0.0115987 -0.00032911 0)
(-0.00988164 -0.000473428 0)
(-0.00766815 -0.000565865 0)
(-0.00522778 -0.00057485 0)
(-0.0028858 -0.00048809 0)
(-0.00104948 -0.000295874 0)
(4.15139e-05 -6.0505e-05 0)
(0.00017309 0.0001616 0)
(-0.000108037 0.000224111 0)
(-0.0016391 0.001591 0)
(-0.00483965 0.00275607 0)
(-0.00901746 0.0035251 0)
(-0.0137982 0.00385472 0)
(-0.0186766 0.00383211 0)
(-0.0233008 0.00351321 0)
(-0.0273292 0.00293968 0)
(-0.0304722 0.00212844 0)
(-0.0324559 0.00109732 0)
(-0.0330475 -0.00011693 0)
(-0.0320828 -0.00143728 0)
(-0.0295153 -0.00273657 0)
(-0.0254761 -0.00383812 0)
(-0.0202978 -0.0045435 0)
(-0.0145564 -0.00466578 0)
(-0.00894522 -0.00411404 0)
(-0.00430515 -0.00290453 0)
(-0.00114524 -0.00135088 0)
(1.51815e-05 6.75441e-05 0)
(-0.000315413 0.00142606 0)
(-0.00308967 0.004849 0)
(-0.00818056 0.00754921 0)
(-0.0145237 0.00927106 0)
(-0.0216061 0.00998118 0)
(-0.0287482 0.00983571 0)
(-0.0354696 0.00895526 0)
(-0.0413004 0.00743146 0)
(-0.0458392 0.00531719 0)
(-0.0487092 0.00267127 0)
(-0.0495907 -0.000400813 0)
(-0.0482572 -0.0037041 0)
(-0.0446363 -0.00693237 0)
(-0.0388906 -0.00967319 0)
(-0.0314531 -0.0114656 0)
(-0.0230936 -0.0118854 0)
(-0.0147572 -0.0107155 0)
(-0.00762494 -0.0080131 0)
(-0.00244593 -0.00439765 0)
(-0.000138531 -0.000790386 0)
(-0.000501444 0.00332853 0)
(-0.00441933 0.00954803 0)
(-0.0112388 0.0141407 0)
(-0.0195034 0.0169493 0)
(-0.0285768 0.018036 0)
(-0.0376464 0.0176583 0)
(-0.0461548 0.0160173 0)
(-0.0535534 0.0132611 0)
(-0.05937 0.00948233 0)
(-0.063151 0.00478423 0)
(-0.0644963 -0.000652139 0)
(-0.0630976 -0.00649869 0)
(-0.0588112 -0.0122402 0)
(-0.0517626 -0.0171785 0)
(-0.0424073 -0.0205176 0)
(-0.0316472 -0.0215111 0)
(-0.0206537 -0.0197372 0)
(-0.0109896 -0.0152506 0)
(-0.00371531 -0.00897393 0)
(-0.00026608 -0.00226728 0)
(-0.000653577 0.00589292 0)
(-0.00559833 0.0156463 0)
(-0.0140142 0.0224905 0)
(-0.0240562 0.0265132 0)
(-0.0349714 0.0279697 0)
(-0.0458363 0.0272672 0)
(-0.0560512 0.0247098 0)
(-0.0650236 0.0205061 0)
(-0.072237 0.0147816 0)
(-0.0771708 0.00767008 0)
(-0.0793304 -0.000586474 0)
(-0.0782831 -0.00953409 0)
(-0.073743 -0.0184356 0)
(-0.0657093 -0.0262593 0)
(-0.0545732 -0.031781 0)
(-0.0413196 -0.0337983 0)
(-0.0273623 -0.0315406 0)
(-0.0147686 -0.024959 0)
(-0.00505969 -0.0152786 0)
(-0.000368428 -0.00437832 0)
(-0.000791169 0.00902345 0)
(-0.00668859 0.0229899 0)
(-0.0166139 0.0324266 0)
(-0.0283516 0.0377892 0)
(-0.0410438 0.0396273 0)
(-0.053679 0.0385566 0)
(-0.0656442 0.0350118 0)
(-0.0763341 0.0292611 0)
(-0.0852099 0.0214428 0)
(-0.0916897 0.0116851 0)
(-0.0951639 0.000247198 0)
(-0.0950241 -0.0123302 0)
(-0.0907567 -0.0251018 0)
(-0.0821231 -0.0366657 0)
(-0.0693308 -0.0452556 0)
(-0.0533659 -0.049017 0)
(-0.0358858 -0.0465879 0)
(-0.0196183 -0.0376227 0)
(-0.0067722 -0.0236291 0)
(-0.000492733 -0.00718515 0)
(-0.000922227 0.0126998 0)
(-0.00773979 0.0315432 0)
(-0.0191321 0.0439173 0)
(-0.0325263 0.0507629 0)
(-0.0469735 0.0530287 0)
(-0.0613988 0.0516042 0)
(-0.0752065 0.0470854 0)
(-0.0878106 0.0397964 0)
(-0.0986754 0.0298557 0)
(-0.107169 0.0173296 0)
(-0.112554 0.00242231 0)
(-0.114002 -0.0143121 0)
(-0.110689 -0.0317689 0)
(-0.102009 -0.0481617 0)
(-0.0878303 -0.0610587 0)
(-0.0689866 -0.0676947 0)
(-0.0473058 -0.0657392 0)
(-0.0263114 -0.054201 0)
(-0.00920664 -0.0347621 0)
(-0.000685085 -0.0109601 0)
(-0.00105597 0.0169069 0)
(-0.00879486 0.0412737 0)
(-0.0216395 0.0569208 0)
(-0.0366588 0.0653941 0)
(-0.0528241 0.0681577 0)
(-0.0690245 0.0664468 0)
(-0.0847141 0.0610546 0)
(-0.0993633 0.0523544 0)
(-0.112473 0.0404046 0)
(-0.123388 0.0251359 0)
(-0.131255 0.00659892 0)
(-0.135011 -0.0147506 0)
(-0.133467 -0.0377448 0)
(-0.125539 -0.0602505 0)
(-0.110568 -0.0790784 0)
(-0.0889915 -0.0902627 0)
(-0.0625849 -0.0899767 0)
(-0.0356721 -0.0759808 0)
(-0.0127885 -0.049781 0)
(-0.00100896 -0.0161631 0)
(-0.00120003 0.0216644 0)
(-0.00988566 0.0521943 0)
(-0.0241735 0.0714254 0)
(-0.0407552 0.0816431 0)
(-0.0585239 0.0849661 0)
(-0.076361 0.0830565 0)
(-0.0938021 0.0769491 0)
(-0.110416 0.0670607 0)
(-0.125782 0.0533487 0)
(-0.139268 0.035528 0)
(-0.149957 0.0133826 0)
(-0.156593 -0.012871 0)
(-0.157642 -0.0421522 0)
(-0.151493 -0.0721029 0)
(-0.136799 -0.0987828 0)
(-0.113275 -0.116793 0)
(-0.0822111 -0.120175 0)
(-0.0484281 -0.104488 0)
(-0.0180036 -0.0702029 0)
(-0.00154854 -0.0235112 0)
(-0.00136491 0.0269916 0)
(-0.0110521 0.0642994 0)
(-0.0267647 0.0873651 0)
(-0.0447736 0.0993646 0)
(-0.0638828 0.103246 0)
(-0.0829943 0.101192 0)
(-0.101754 0.0945317 0)
(-0.119869 0.0837272 0)
(-0.137049 0.0686033 0)
(-0.152756 0.0485923 0)
(-0.166102 0.023108 0)
(-0.175765 -0.00801926 0)
(-0.179993 -0.0439903 0)
(-0.176733 -0.0824513 0)
(-0.163899 -0.118901 0)
(-0.140151 -0.146487 0)
(-0.105662 -0.156531 0)
(-0.0649463 -0.141088 0)
(-0.0253835 -0.0978386 0)
(-0.00242826 -0.0340122 0)
(-0.00157894 0.0329778 0)
(-0.012373 0.0776422 0)
(-0.029469 0.10467 0)
(-0.0486554 0.118318 0)
(-0.0686209 0.122601 0)
(-0.088326 0.120323 0)
(-0.107547 0.11318 0)
(-0.126175 0.101686 0)
(-0.144097 0.0855283 0)
(-0.160959 0.0638234 0)
(-0.176043 0.0355561 0)
(-0.188161 5.70161e-05 0)
(-0.1956 -0.042358 0)
(-0.196115 -0.089671 0)
(-0.187034 -0.137253 0)
(-0.165777 -0.177173 0)
(-0.130739 -0.197812 0)
(-0.0847611 -0.186303 0)
(-0.0354131 -0.134515 0)
(-0.00383221 -0.0490237 0)
(-0.00189055 0.0396974 0)
(-0.0140234 0.0921905 0)
(-0.0324571 0.1231 0)
(-0.0524286 0.137993 0)
(-0.072477 0.142276 0)
(-0.0916961 0.139477 0)
(-0.11002 0.131734 0)
(-0.127573 0.11964 0)
(-0.14447 0.102765 0)
(-0.160639 0.0799371 0)
(-0.175689 0.0497258 0)
(-0.188808 0.0109269 0)
(-0.198662 -0.0367806 0)
(-0.203205 -0.0920867 0)
(-0.199583 -0.150889 0)
(-0.184112 -0.205063 0)
(-0.153049 -0.240577 0)
(-0.105914 -0.238751 0)
(-0.0482797 -0.181425 0)
(-0.00601751 -0.0702348 0)
(-0.00243082 0.0475869 0)
(-0.0163385 0.10824 0)
(-0.0360267 0.142564 0)
(-0.0561829 0.157811 0)
(-0.0751741 0.161271 0)
(-0.0923866 0.15729 0)
(-0.107956 0.148534 0)
(-0.122315 0.135686 0)
(-0.135854 0.118259 0)
(-0.148873 0.0948661 0)
(-0.161444 0.0637607 0)
(-0.173343 0.0232679 0)
(-0.183929 -0.0276178 0)
(-0.19179 -0.0885955 0)
(-0.194484 -0.156806 0)
(-0.18777 -0.225238 0)
(-0.166092 -0.278979 0)
(-0.124337 -0.2941 0)
(-0.0633524 -0.238088 0)
(-0.00929643 -0.0995562 0)
(-0.00340598 0.0568816 0)
(-0.0200122 0.125629 0)
(-0.0408506 0.162365 0)
(-0.0602898 0.176518 0)
(-0.0765582 0.177921 0)
(-0.0897025 0.171785 0)
(-0.100158 0.161359 0)
(-0.108792 0.147415 0)
(-0.11632 0.129469 0)
(-0.123469 0.106034 0)
(-0.130844 0.0751986 0)
(-0.13891 0.0349723 0)
(-0.147908 -0.0162434 0)
(-0.157377 -0.0792592 0)
(-0.165923 -0.152981 0)
(-0.169584 -0.232878 0)
(-0.1622 -0.305538 0)
(-0.133735 -0.344537 0)
(-0.0784306 -0.300881 0)
(-0.0139373 -0.138531 0)
(-0.00530893 0.069664 0)
(-0.0259604 0.14572 0)
(-0.0473949 0.182656 0)
(-0.0645271 0.193071 0)
(-0.0755995 0.190429 0)
(-0.0819659 0.18071 0)
(-0.0844989 0.167705 0)
(-0.0846712 0.152185 0)
(-0.0835384 0.133682 0)
(-0.0822638 0.110701 0)
(-0.0819507 0.0813152 0)
(-0.083715 0.043408 0)
(-0.0886761 -0.00500517 0)
(-0.0974235 -0.0656859 0)
(-0.110073 -0.1394 0)
(-0.123804 -0.225005 0)
(-0.133753 -0.313159 0)
(-0.126048 -0.379821 0)
(-0.0888645 -0.362151 0)
(-0.019916 -0.187705 0)
(-0.00890662 0.0856979 0)
(-0.0362962 0.166751 0)
(-0.0566339 0.200463 0)
(-0.0682615 0.203885 0)
(-0.069858 0.19514 0)
(-0.0654257 0.180649 0)
(-0.0564248 0.164486 0)
(-0.045106 0.147243 0)
(-0.0327924 0.128416 0)
(-0.0209824 0.106557 0)
(-0.0111191 0.0798437 0)
(-0.00478004 0.0462281 0)
(-0.00377823 0.0036082 0)
(-0.00960441 -0.0503283 0)
(-0.0240197 -0.117795 0)
(-0.0458902 -0.201028 0)
(-0.0736942 -0.296584 0)
(-0.0920563 -0.388599 0)
(-0.0869655 -0.409107 0)
(-0.0262845 -0.243928 0)
(-0.0152267 0.114723 0)
(-0.0501215 0.19318 0)
(-0.0633997 0.215821 0)
(-0.0626858 0.20608 0)
(-0.0480522 0.18819 0)
(-0.027568 0.167772 0)
(-0.00309332 0.148308 0)
(0.0224208 0.129766 0)
(0.0476447 0.111368 0)
(0.0710011 0.0916789 0)
(0.0909914 0.0690251 0)
(0.105876 0.0415731 0)
(0.113479 0.00734957 0)
(0.111716 -0.036012 0)
(0.0974426 -0.091451 0)
(0.0699973 -0.163511 0)
(0.0261408 -0.254884 0)
(-0.0203335 -0.362456 0)
(-0.0603547 -0.426783 0)
(-0.0296118 -0.301202 0)
(-0.0256436 0.143914 0)
(-0.0674755 0.209013 0)
(-0.0539962 0.212038 0)
(-0.0259487 0.1866 0)
(0.0164014 0.160351 0)
(0.0596909 0.136226 0)
(0.103173 0.115783 0)
(0.144077 0.09815 0)
(0.181805 0.0821442 0)
(0.215295 0.0664029 0)
(0.24347 0.0494866 0)
(0.264849 0.0299369 0)
(0.277332 0.0061569 0)
(0.278597 -0.0237472 0)
(0.264738 -0.0625548 0)
(0.233487 -0.115091 0)
(0.176942 -0.188208 0)
(0.104438 -0.291842 0)
(0.0100612 -0.390285 0)
(-0.018521 -0.334862 0)
(-0.0182737 0.21647 0)
(-0.0187189 0.216761 0)
(0.05669 0.180724 0)
(0.126103 0.137142 0)
(0.198831 0.105669 0)
(0.262079 0.0827743 0)
(0.318583 0.0657881 0)
(0.36758 0.0528174 0)
(0.409934 0.0422142 0)
(0.445734 0.0327638 0)
(0.474739 0.0233886 0)
(0.496114 0.0131514 0)
(0.508328 0.00104521 0)
(0.50929 -0.0140101 0)
(0.49541 -0.0340196 0)
(0.463391 -0.062331 0)
(0.403167 -0.106948 0)
(0.315858 -0.185847 0)
(0.168472 -0.295769 0)
(0.041957 -0.334285 0)
(0.211772 0.130216 0)
(0.298818 0.101603 0)
(0.453224 0.0676519 0)
(0.544728 0.0439766 0)
(0.617764 0.0283919 0)
(0.671245 0.0190119 0)
(0.712539 0.0130626 0)
(0.744736 0.00921728 0)
(0.770165 0.00652958 0)
(0.790048 0.00444759 0)
(0.804904 0.00258524 0)
(0.814626 0.000676818 0)
(0.818539 -0.00153299 0)
(0.815386 -0.00424357 0)
(0.802995 -0.00799695 0)
(0.778107 -0.0133621 0)
(0.732463 -0.0228019 0)
(0.657585 -0.0408375 0)
(0.497594 -0.0745585 0)
(0.28824 -0.136391 0)
)
;

boundaryField
{
    movingWall
    {
        type            fixedValue;
        value           uniform (1 0 0);
    }
    fixedWalls
    {
        type            noSlip;
    }
    frontAndBack
    {
        type            empty;
    }
}


// ************************************************************************* //
