/*--------------------------------*- C++ -*----------------------------------*\
| =========                 |                                                 |
| \\      /  F ield         | OpenFOAM: The Open Source CFD Toolbox           |
|  \\    /   O peration     | Version:  4.1                                   |
|   \\  /    A nd           | Web:      www.OpenFOAM.org                      |
|    \\/     M anipulation  |                                                 |
\*---------------------------------------------------------------------------*/
FoamFile
{
    version     2.0;
    format      ascii;
    class       volVectorField;
    location    "0.0484";
    object      U;
}
// * * * * * * * * * * * * * * * * * * * * * * * * * * * * * * * * * * * * * //

dimensions      [0 1 -1 0 0 0 0];

internalField   nonuniform List<vector> 
441
(
(0.00336432 -0.00457983 0)
(0.00857604 -0.00257878 0)
(-0.000644713 -2.18151e-165 0)
(0.00171377 -2.79803e-266 0)
(-0.00880587 -0.00685568 0)
(-0.00171377 -2.72546e-232 0)
(-1.08613e-202 -4.59917e-203 0)
(-1.14962e-203 -5.88764e-228 0)
(-1.49401e-212 -2.50344e-213 0)
(-0.00529482 7.95768e-266 0)
(-0.0638469 0.0211816 0)
(-0.0808183 0.0112912 0)
(-0.0920916 0.00537798 0)
(-0.0827519 0.000738936 0)
(-0.0704502 -0.00103385 0)
(-0.049825 -0.00236756 0)
(-0.0315093 -0.00184181 0)
(-0.0139026 -0.00165867 0)
(-0.00191248 0.000216455 0)
(0.00189579 0.000857521 0)
(0.00391876 0.00247758 0)
(0.0032404 -0.00716296 0)
(-0.00219854 0.00655472 0)
(-0.0270724 0.00776279 0)
(-0.0559196 0.010591 0)
(-0.0979412 0.00951157 0)
(-0.136018 -0.00410442 0)
(-0.170928 -0.000392561 0)
(-0.203549 0.00130773 0)
(-0.231957 0.0111299 0)
(-0.260708 0.0566512 0)
(-0.280553 0.0525165 0)
(-0.275822 0.0172725 0)
(-0.265221 -0.00389353 0)
(-0.232412 -0.0230603 0)
(-0.193968 -0.0319561 0)
(-0.143567 -0.0377329 0)
(-0.0968575 -0.0338568 0)
(-0.0529288 -0.02913 0)
(-0.0210128 -0.0155402 0)
(-0.00470906 -0.00743227 0)
(0.00406373 0.00355163 0)
(0.00658245 -0.00616532 0)
(-0.00570826 0.0273488 0)
(-0.0506597 0.0523524 0)
(-0.109527 0.0686613 0)
(-0.17958 0.0721979 0)
(-0.251052 0.0693006 0)
(-0.325969 0.0651377 0)
(-0.384482 0.0590039 0)
(-0.441656 0.0549527 0)
(-0.467848 0.0526256 0)
(-0.462604 0.0371562 0)
(-0.447495 -0.00295966 0)
(-0.419013 -0.0373875 0)
(-0.368021 -0.0703622 0)
(-0.307311 -0.0889649 0)
(-0.231616 -0.0997541 0)
(-0.160077 -0.091356 0)
(-0.0916478 -0.0779874 0)
(-0.0409984 -0.0469369 0)
(-0.0109141 -0.0246274 0)
(0.00539832 0.00228512 0)
(0.00592996 -0.00826776 0)
(-0.0138271 0.0654078 0)
(-0.0854592 0.111644 0)
(-0.168028 0.14165 0)
(-0.263658 0.151373 0)
(-0.358062 0.144784 0)
(-0.449155 0.134467 0)
(-0.526008 0.11775 0)
(-0.588229 0.0965172 0)
(-0.623638 0.075151 0)
(-0.629548 0.0319243 0)
(-0.609828 -0.0273616 0)
(-0.570957 -0.0834773 0)
(-0.503251 -0.135837 0)
(-0.422215 -0.16815 0)
(-0.321468 -0.186368 0)
(-0.225128 -0.173262 0)
(-0.131014 -0.14979 0)
(-0.0609203 -0.0954489 0)
(-0.0161602 -0.0551767 0)
(0.00723648 -0.00159822 0)
(6.25551e-165 0.00148249 0)
(-0.0203268 0.118318 0)
(-0.121297 0.205814 0)
(-0.222588 0.245575 0)
(-0.341736 0.261274 0)
(-0.455525 0.253179 0)
(-0.567028 0.231993 0)
(-0.659427 0.197159 0)
(-0.735335 0.152019 0)
(-0.778954 0.0945839 0)
(-0.791394 0.0237661 0)
(-0.772889 -0.0613177 0)
(-0.727895 -0.143212 0)
(-0.647238 -0.219407 0)
(-0.547514 -0.269669 0)
(-0.420133 -0.297627 0)
(-0.297025 -0.280354 0)
(-0.171463 -0.243222 0)
(-0.0801295 -0.160138 0)
(-0.0161906 -0.0935949 0)
(0.0137673 -0.00581413 0)
(-5.10538e-266 0.00513021 0)
(-0.0779204 0.191066 0)
(-0.167733 0.312145 0)
(-0.287969 0.363814 0)
(-0.416601 0.384252 0)
(-0.547011 0.371111 0)
(-0.671269 0.338964 0)
(-0.779491 0.286306 0)
(-0.868109 0.216819 0)
(-0.926568 0.130475 0)
(-0.953915 0.0261254 0)
(-0.942791 -0.0918206 0)
(-0.898886 -0.208872 0)
(-0.80903 -0.317701 0)
(-0.692512 -0.394761 0)
(-0.536785 -0.439123 0)
(-0.382777 -0.420875 0)
(-0.219781 -0.369645 0)
(-0.102186 -0.248845 0)
(-0.0149533 -0.152187 0)
(0.0160371 -0.00286927 0)
(-0.0205208 0.0824962 0)
(-0.107784 0.282721 0)
(-0.210941 0.416281 0)
(-0.342462 0.492793 0)
(-0.486867 0.519659 0)
(-0.632671 0.506581 0)
(-0.774285 0.463832 0)
(-0.899951 0.393212 0)
(-1.00714 0.298954 0)
(-1.08397 0.180178 0)
(-1.12923 0.0404798 0)
(-1.13139 -0.116626 0)
(-1.0943 -0.275991 0)
(-1.00011 -0.426592 0)
(-0.869636 -0.540434 0)
(-0.683168 -0.608989 0)
(-0.494835 -0.595099 0)
(-0.281655 -0.526014 0)
(-0.135674 -0.361854 0)
(-0.00248091 -0.213549 0)
(5.73177e-266 -0.00400929 0)
(-0.0149174 0.135756 0)
(-0.102162 0.38259 0)
(-0.230423 0.547454 0)
(-0.380267 0.640553 0)
(-0.542703 0.674812 0)
(-0.706121 0.658905 0)
(-0.865134 0.606638 0)
(-1.01083 0.519112 0)
(-1.1392 0.401266 0)
(-1.23986 0.25205 0)
(-1.30941 0.0739291 0)
(-1.33241 -0.127784 0)
(-1.31038 -0.339665 0)
(-1.21932 -0.544418 0)
(-1.07978 -0.710983 0)
(-0.864165 -0.817702 0)
(-0.636483 -0.820699 0)
(-0.366979 -0.734693 0)
(-0.177806 -0.523541 0)
(-0.00257645 -0.296991 0)
(2.30919e-24 -1.25125e-24 0)
(-0.0131537 0.196336 0)
(-0.105991 0.496491 0)
(-0.250783 0.692983 0)
(-0.415782 0.80341 0)
(-0.595163 0.844413 0)
(-0.774916 0.82761 0)
(-0.951898 0.767813 0)
(-1.11803 0.666278 0)
(-1.26968 0.527828 0)
(-1.39705 0.349814 0)
(-1.49498 0.133602 0)
(-1.54569 -0.116162 0)
(-1.54698 -0.387728 0)
(-1.46869 -0.658361 0)
(-1.32879 -0.893449 0)
(-1.08891 -1.05508 0)
(-0.821898 -1.08868 0)
(-0.486118 -0.989396 0)
(-0.242244 -0.719057 0)
(-0.00433641 -0.398419 0)
(9.50017e-77 -5.77299e-25 0)
(-0.011614 0.255587 0)
(-0.106119 0.621895 0)
(-0.262835 0.858103 0)
(-0.439541 0.985609 0)
(-0.632295 1.03453 0)
(-0.825681 1.01572 0)
(-1.01744 0.950111 0)
(-1.20204 0.836562 0)
(-1.3753 0.680497 0)
(-1.52981 0.476658 0)
(-1.65825 0.222817 0)
(-1.74207 -0.0769792 0)
(-1.77499 -0.41615 0)
(-1.72115 -0.765147 0)
(-1.5933 -1.09002 0)
(-1.34072 -1.33013 0)
(-1.03879 -1.42195 0)
(-0.632963 -1.32385 0)
(-0.321474 -0.999988 0)
(-0.00591023 -0.553424 0)
(2.65713e-164 -2.37504e-77 0)
(-0.0121427 0.310869 0)
(-0.111352 0.74603 0)
(-0.278799 1.02428 0)
(-0.464658 1.17076 0)
(-0.666216 1.22903 0)
(-0.867957 1.21088 0)
(-1.06794 1.14319 0)
(-1.26446 1.02276 0)
(-1.45243 0.855215 0)
(-1.62889 0.631904 0)
(-1.7841 0.346353 0)
(-1.90237 9.98348e-05 0)
(-1.97234 -0.406873 0)
(-1.95595 -0.841015 0)
(-1.85727 -1.27077 0)
(-1.61304 -1.61309 0)
(-1.29359 -1.79167 0)
(-0.82748 -1.71415 0)
(-0.443535 -1.33506 0)
(-0.0720971 -0.731863 0)
(1.68051e-265 0.0124737 0)
(-0.0134126 0.380079 0)
(-0.114511 0.890728 0)
(-0.287767 1.21299 0)
(-0.476418 1.3738 0)
(-0.678619 1.43906 0)
(-0.879727 1.41745 0)
(-1.07723 1.34727 0)
(-1.27435 1.22057 0)
(-1.46461 1.045 0)
(-1.65131 0.807493 0)
(-1.82308 0.496155 0)
(-1.96996 0.110057 0)
(-2.07731 -0.362353 0)
(-2.10806 -0.882625 0)
(-2.05712 -1.43224 0)
(-1.84868 -1.90028 0)
(-1.53676 -2.20666 0)
(-1.02393 -2.18746 0)
(-0.548883 -1.74986 0)
(-0.0714324 -1.01565 0)
(0.049895 -0.0679824 0)
(-0.0175385 0.434477 0)
(-0.125591 1.01747 0)
(-0.308006 1.38332 0)
(-0.497108 1.55833 0)
(-0.691132 1.63053 0)
(-0.880196 1.60689 0)
(-1.05861 1.53679 0)
(-1.23892 1.40848 0)
(-1.41069 1.23175 0)
(-1.58817 0.989644 0)
(-1.75645 0.665437 0)
(-1.91845 0.254469 0)
(-2.05413 -0.266577 0)
(-2.13815 -0.86074 0)
(-2.15158 -1.52538 0)
(-2.01359 -2.13544 0)
(-1.75493 -2.61036 0)
(-1.21714 -2.71048 0)
(-0.690471 -2.28101 0)
(0.0373095 -1.33717 0)
(2.30653e-231 -0.0124737 0)
(-0.0229943 0.526103 0)
(-0.135587 1.18426 0)
(-0.320658 1.58834 0)
(-0.50074 1.758 0)
(-0.673562 1.82523 0)
(-0.835368 1.78519 0)
(-0.976517 1.70782 0)
(-1.11937 1.57252 0)
(-1.24925 1.39476 0)
(-1.39208 1.15294 0)
(-1.53078 0.825969 0)
(-1.68322 0.40735 0)
(-1.82882 -0.143227 0)
(-1.95869 -0.786032 0)
(-2.04834 -1.55654 0)
(-2.0203 -2.30155 0)
(-1.87763 -3.00273 0)
(-1.41783 -3.26984 0)
(-0.884427 -2.99896 0)
(-0.00365908 -1.74187 0)
(5.64605e-202 4.50382e-184 0)
(-0.0397212 0.585956 0)
(-0.173484 1.30904 0)
(-0.370262 1.74455 0)
(-0.538925 1.90568 0)
(-0.672271 1.96347 0)
(-0.78744 1.90633 0)
(-0.862913 1.8204 0)
(-0.941716 1.67982 0)
(-0.998115 1.50474 0)
(-1.07702 1.27161 0)
(-1.15273 0.957564 0)
(-1.26803 0.554655 0)
(-1.39218 0.0116832 0)
(-1.55639 -0.637567 0)
(-1.71091 -1.45629 0)
(-1.83496 -2.30331 0)
(-1.85186 -3.19747 0)
(-1.58989 -3.71277 0)
(-1.12341 -3.67272 0)
(-0.010703 -2.25097 0)
(1.80153e-183 1.94153e-185 0)
(-0.0588031 0.747182 0)
(-0.212068 1.5191 0)
(-0.406698 1.9631 0)
(-0.547117 2.06133 0)
(-0.621128 2.08079 0)
(-0.668472 1.97647 0)
(-0.656876 1.86624 0)
(-0.648275 1.70838 0)
(-0.607327 1.53168 0)
(-0.594846 1.30866 0)
(-0.578626 1.01661 0)
(-0.621034 0.6488 0)
(-0.688548 0.143116 0)
(-0.84365 -0.46416 0)
(-1.03928 -1.28133 0)
(-1.2988 -2.15727 0)
(-1.53998 -3.25313 0)
(-1.59601 -4.00564 0)
(-1.4369 -4.59628 0)
(-0.459158 -2.91194 0)
(4.35982e-254 -4.50382e-184 0)
(-0.124334 0.842678 0)
(-0.344953 1.64376 0)
(-0.532802 2.07427 0)
(-0.627246 2.11034 0)
(-0.587087 2.08397 0)
(-0.527035 1.9371 0)
(-0.380063 1.8011 0)
(-0.25053 1.62922 0)
(-0.0789326 1.45274 0)
(0.0483925 1.24516 0)
(0.182204 0.98572 0)
(0.230889 0.670277 0)
(0.252173 0.237737 0)
(0.121962 -0.277595 0)
(-0.0603255 -0.993162 0)
(-0.481744 -1.79144 0)
(-0.890965 -2.87426 0)
(-1.572 -3.81506 0)
(-1.70569 -4.72136 0)
(-2.05973 -3.76412 0)
(-2.53803e-264 -0.213061 0)
(-0.179352 1.2377 0)
(-0.434361 1.93184 0)
(-0.550553 2.2676 0)
(-0.539798 2.11589 0)
(-0.34253 1.99443 0)
(-0.13631 1.76918 0)
(0.167133 1.59638 0)
(0.436199 1.40742 0)
(0.745608 1.23484 0)
(0.99552 1.04924 0)
(1.24881 0.833399 0)
(1.40141 0.58361 0)
(1.52245 0.248504 0)
(1.46872 -0.142236 0)
(1.34444 -0.688245 0)
(0.930218 -1.30993 0)
(0.426617 -2.19314 0)
(-0.462444 -3.14687 0)
(-1.14962 -4.19684 0)
(-1.85372 -4.47257 0)
(-0.852245 -2.29798 0)
(-0.399629 1.42191 0)
(-0.729491 1.98624 0)
(-0.539059 2.17385 0)
(-0.282381 1.88555 0)
(0.242932 1.68162 0)
(0.673167 1.41977 0)
(1.19363 1.23074 0)
(1.61897 1.04885 0)
(2.06741 0.895326 0)
(2.42239 0.744801 0)
(2.77093 0.581954 0)
(2.99507 0.405076 0)
(3.19034 0.173643 0)
(3.18254 -0.0839518 0)
(3.12702 -0.450815 0)
(2.72557 -0.851101 0)
(2.27667 -1.48127 0)
(1.28013 -2.20806 0)
(0.401399 -3.33324 0)
(-0.73051 -3.98447 0)
(-0.697795 -2.95992 0)
(-0.255056 2.42866 0)
(-0.0966411 2.06593 0)
(0.688841 1.87115 0)
(1.32602 1.32635 0)
(2.12438 1.05957 0)
(2.72905 0.812101 0)
(3.35797 0.657094 0)
(3.84677 0.529743 0)
(4.32589 0.431987 0)
(4.69295 0.345376 0)
(5.04005 0.258909 0)
(5.26102 0.169254 0)
(5.45309 0.0574505 0)
(5.45647 -0.066226 0)
(5.42546 -0.241041 0)
(5.08181 -0.437707 0)
(4.71133 -0.778167 0)
(3.79564 -1.23873 0)
(2.84386 -2.25288 0)
(1.082 -3.3276 0)
(-0.0442985 -3.80037 0)
(1.66891 1.6712 0)
(2.7103 0.976565 0)
(4.55455 0.749508 0)
(5.39225 0.42346 0)
(6.2533 0.284682 0)
(6.7533 0.175443 0)
(7.22058 0.118466 0)
(7.53183 0.0785261 0)
(7.8194 0.0530558 0)
(8.01525 0.0337732 0)
(8.19519 0.0168373 0)
(8.2878 0.0007785 0)
(8.36793 -0.0195353 0)
(8.32159 -0.0402381 0)
(8.27261 -0.0761344 0)
(7.99722 -0.110293 0)
(7.74919 -0.200996 0)
(6.99939 -0.29483 0)
(6.26573 -0.627715 0)
(4.04769 -0.999782 0)
(2.00812 -1.82105 0)
)
;

boundaryField
{
    movingWall
    {
        type            fixedValue;
        value           uniform (10 0 0);
    }
    fixedWalls
    {
        type            noSlip;
    }
    frontAndBack
    {
        type            empty;
    }
}


// ************************************************************************* //
