/*--------------------------------*- C++ -*----------------------------------*\
| =========                 |                                                 |
| \\      /  F ield         | OpenFOAM: The Open Source CFD Toolbox           |
|  \\    /   O peration     | Version:  4.1                                   |
|   \\  /    A nd           | Web:      www.OpenFOAM.org                      |
|    \\/     M anipulation  |                                                 |
\*---------------------------------------------------------------------------*/
FoamFile
{
    version     2.0;
    format      ascii;
    class       volVectorField;
    location    "1.25";
    object      U;
}
// * * * * * * * * * * * * * * * * * * * * * * * * * * * * * * * * * * * * * //

dimensions      [0 1 -1 0 0 0 0];

internalField   nonuniform List<vector> 
400
(
(5.81678e-05 -5.61714e-05 0)
(-0.000370276 0.000149397 0)
(-0.00153353 0.00029587 0)
(-0.00305419 0.000379357 0)
(-0.0047495 0.000397313 0)
(-0.00640709 0.000379171 0)
(-0.00791937 0.00033545 0)
(-0.00919422 0.000275197 0)
(-0.0101697 0.000200118 0)
(-0.0107877 0.000111209 0)
(-0.0109988 8.99014e-06 0)
(-0.0107621 -0.00010383 0)
(-0.0100537 -0.000221782 0)
(-0.00888277 -0.000334231 0)
(-0.00729913 -0.000426674 0)
(-0.00542969 -0.000475997 0)
(-0.00345325 -0.000462572 0)
(-0.00168104 -0.000354396 0)
(-0.000365897 -0.000169477 0)
(7.87428e-05 7.07188e-05 0)
(-0.000145398 0.000364436 0)
(-0.0017011 0.00166585 0)
(-0.00468877 0.00262942 0)
(-0.00836481 0.00314932 0)
(-0.0123546 0.00325878 0)
(-0.0162276 0.00308283 0)
(-0.0197353 0.00270409 0)
(-0.0226682 0.00217949 0)
(-0.0248795 0.00153579 0)
(-0.0262412 0.000789412 0)
(-0.0266499 -4.36733e-05 0)
(-0.0260283 -0.000936098 0)
(-0.0243401 -0.00184133 0)
(-0.0216202 -0.0026845 0)
(-0.0179911 -0.00336141 0)
(-0.0137257 -0.0037338 0)
(-0.0092038 -0.00366352 0)
(-0.00503958 -0.003017 0)
(-0.00173934 -0.0018372 0)
(-0.000122898 -0.000347108 0)
(-0.000317474 0.0015639 0)
(-0.0028778 0.00469538 0)
(-0.00733783 0.00685975 0)
(-0.0126388 0.00797411 0)
(-0.0182867 0.0081623 0)
(-0.0237205 0.00767391 0)
(-0.0286114 0.00669497 0)
(-0.0326803 0.00535464 0)
(-0.0357303 0.00372426 0)
(-0.0375916 0.00185119 0)
(-0.0381288 -0.00021773 0)
(-0.0372414 -0.00241163 0)
(-0.0348833 -0.00461681 0)
(-0.0311009 -0.00665835 0)
(-0.0260555 -0.00829553 0)
(-0.0201051 -0.00922178 0)
(-0.0137479 -0.00912778 0)
(-0.00779217 -0.00774446 0)
(-0.00291094 -0.00510626 0)
(-0.000280143 -0.00155373 0)
(-0.000450695 0.00328111 0)
(-0.00382028 0.00876762 0)
(-0.00947441 0.0123525 0)
(-0.0160586 0.0141069 0)
(-0.0229851 0.0143186 0)
(-0.0296005 0.0133952 0)
(-0.0355327 0.0116457 0)
(-0.0404642 0.00928204 0)
(-0.0441704 0.00642689 0)
(-0.0464551 0.0031625 0)
(-0.0471565 -0.000429911 0)
(-0.046148 -0.00423098 0)
(-0.0433595 -0.00805022 0)
(-0.0388244 -0.0115954 0)
(-0.0327103 -0.0144618 0)
(-0.0254248 -0.0161367 0)
(-0.0175522 -0.016095 0)
(-0.0100797 -0.0138851 0)
(-0.0038456 -0.00947939 0)
(-0.000390819 -0.00325694 0)
(-0.000546767 0.00544277 0)
(-0.00458589 0.0137717 0)
(-0.0112726 0.018989 0)
(-0.0189713 0.0214257 0)
(-0.0270066 0.0216073 0)
(-0.0346464 0.0201407 0)
(-0.041494 0.0174792 0)
(-0.047211 0.0139264 0)
(-0.0515588 0.00965777 0)
(-0.0543202 0.00478751 0)
(-0.0553042 -0.000573318 0)
(-0.054344 -0.00626014 0)
(-0.0513212 -0.0120031 0)
(-0.0462238 -0.0173788 0)
(-0.0391899 -0.0217862 0)
(-0.0306524 -0.0244555 0)
(-0.0212777 -0.0245778 0)
(-0.0122681 -0.0214481 0)
(-0.00467627 -0.0149257 0)
(-0.000464891 -0.00539826 0)
(-0.000633491 0.00795952 0)
(-0.00530073 0.0195689 0)
(-0.0129813 0.0266192 0)
(-0.0217618 0.0297812 0)
(-0.0308802 0.0298895 0)
(-0.0395319 0.0277965 0)
(-0.0473072 0.0241237 0)
(-0.0538592 0.0192724 0)
(-0.0589444 0.0134665 0)
(-0.0623275 0.00684087 0)
(-0.0637818 -0.000478858 0)
(-0.0630822 -0.00829821 0)
(-0.06003 -0.0162763 0)
(-0.0545243 -0.0238503 0)
(-0.0466266 -0.0301867 0)
(-0.0367608 -0.0341861 0)
(-0.0256724 -0.0346527 0)
(-0.0148414 -0.0305198 0)
(-0.00562457 -0.0214765 0)
(-0.0005405 -0.00794073 0)
(-0.000726607 0.0108461 0)
(-0.00606942 0.0261949 0)
(-0.014818 0.0352938 0)
(-0.0247593 0.0392327 0)
(-0.035041 0.0392325 0)
(-0.0447898 0.0364428 0)
(-0.0535938 0.0316812 0)
(-0.0611112 0.0254523 0)
(-0.0671045 0.0180207 0)
(-0.0713261 0.0095227 0)
(-0.0735097 7.24185e-05 0)
(-0.0733528 -0.0101349 0)
(-0.0705393 -0.02071 0)
(-0.0648213 -0.0309528 0)
(-0.0561113 -0.0397569 0)
(-0.0447586 -0.0455953 0)
(-0.0315613 -0.0467253 0)
(-0.018351 -0.0415435 0)
(-0.00693174 -0.029471 0)
(-0.000646516 -0.011006 0)
(-0.000841662 0.0141489 0)
(-0.00698218 0.0337443 0)
(-0.016963 0.0451225 0)
(-0.028223 0.0498867 0)
(-0.0398104 0.0497391 0)
(-0.0507893 0.0461879 0)
(-0.0607614 0.0402801 0)
(-0.0694095 0.0326293 0)
(-0.0765204 0.0235297 0)
(-0.0818489 0.0130918 0)
(-0.0850932 0.0013794 0)
(-0.0858617 -0.0114602 0)
(-0.0836819 -0.0250368 0)
(-0.0780845 -0.0385392 0)
(-0.0687244 -0.0505581 0)
(-0.0557526 -0.0590174 0)
(-0.0399326 -0.061389 0)
(-0.0235031 -0.0552391 0)
(-0.00892034 -0.0395094 0)
(-0.00082542 -0.0148343 0)
(-0.000993344 0.0179729 0)
(-0.0081194 0.0424062 0)
(-0.019567 0.0563092 0)
(-0.032352 0.061925 0)
(-0.0454103 0.061568 0)
(-0.0577555 0.0571793 0)
(-0.0690255 0.0500788 0)
(-0.0789577 0.0409957 0)
(-0.0873924 0.0302407 0)
(-0.0941151 0.0178656 0)
(-0.0988093 0.00383052 0)
(-0.100997 -0.0118382 0)
(-0.10002 -0.0288338 0)
(-0.0951043 -0.0463064 0)
(-0.0855005 -0.0625503 0)
(-0.0709553 -0.0748171 0)
(-0.0520016 -0.0794562 0)
(-0.0312524 -0.0727155 0)
(-0.0120637 -0.0525965 0)
(-0.00114416 -0.0198729 0)
(-0.00119991 0.0224486 0)
(-0.0095726 0.0524054 0)
(-0.0227808 0.0690775 0)
(-0.0373178 0.0755213 0)
(-0.05199 0.0748464 0)
(-0.0657857 0.0695192 0)
(-0.078411 0.0611867 0)
(-0.0897008 0.050702 0)
(-0.0995898 0.0383813 0)
(-0.10794 0.02418 0)
(-0.114461 0.00789091 0)
(-0.118621 -0.0106807 0)
(-0.119574 -0.0314445 0)
(-0.116174 -0.0536575 0)
(-0.107106 -0.0754054 0)
(-0.0914248 -0.0931933 0)
(-0.0690822 -0.101829 0)
(-0.0428161 -0.0954788 0)
(-0.0170632 -0.0702563 0)
(-0.00171923 -0.0268706 0)
(-0.00149768 0.0278047 0)
(-0.0114697 0.0640823 0)
(-0.0267746 0.0837295 0)
(-0.0432697 0.0908674 0)
(-0.0596129 0.08967 0)
(-0.0748152 0.0832393 0)
(-0.0886908 0.0736182 0)
(-0.101227 0.061793 0)
(-0.112502 0.0480775 0)
(-0.122512 0.0322966 0)
(-0.131062 0.0140082 0)
(-0.13763 -0.00732328 0)
(-0.141237 -0.0320061 0)
(-0.140363 -0.0596421 0)
(-0.133026 -0.0883316 0)
(-0.117277 -0.113903 0)
(-0.091997 -0.12922 0)
(-0.0594065 -0.125323 0)
(-0.0248588 -0.0946498 0)
(-0.00274396 -0.0370487 0)
(-0.00193952 0.034276 0)
(-0.0140118 0.0777331 0)
(-0.0317832 0.100461 0)
(-0.050364 0.107986 0)
(-0.0682454 0.105925 0)
(-0.0845557 0.0981363 0)
(-0.0992663 0.0871349 0)
(-0.112583 0.0740452 0)
(-0.124775 0.0591781 0)
(-0.136035 0.0422041 0)
(-0.146341 0.022393 0)
(-0.155287 -0.00124644 0)
(-0.161896 -0.0296256 0)
(-0.164396 -0.0630079 0)
(-0.160215 -0.0998986 0)
(-0.146241 -0.135796 0)
(-0.119796 -0.161477 0)
(-0.081436 -0.16374 0)
(-0.0364703 -0.128404 0)
(-0.0045173 -0.0522464 0)
(-0.00265333 0.0424665 0)
(-0.0175061 0.0939962 0)
(-0.0380468 0.119647 0)
(-0.0586137 0.126885 0)
(-0.0775244 0.123341 0)
(-0.0941959 0.113739 0)
(-0.108812 0.101142 0)
(-0.121872 0.0868005 0)
(-0.133864 0.071021 0)
(-0.145229 0.0533129 0)
(-0.156181 0.0326379 0)
(-0.166559 0.00748206 0)
(-0.175597 -0.023829 0)
(-0.181579 -0.0625393 0)
(-0.181728 -0.10808 0)
(-0.171974 -0.156345 0)
(-0.147943 -0.196527 0)
(-0.107041 -0.210643 0)
(-0.0524646 -0.173915 0)
(-0.00746293 -0.075051 0)
(-0.00382114 0.0527289 0)
(-0.0225018 0.112958 0)
(-0.0459377 0.140953 0)
(-0.0679158 0.146795 0)
(-0.0866156 0.14087 0)
(-0.1021 0.128827 0)
(-0.11485 0.114312 0)
(-0.125759 0.0986515 0)
(-0.135546 0.0821398 0)
(-0.144908 0.064139 0)
(-0.154325 0.0433418 0)
(-0.16398 0.0177503 0)
(-0.173568 -0.0150842 0)
(-0.181863 -0.0575593 0)
(-0.186598 -0.110529 0)
(-0.183464 -0.171349 0)
(-0.167016 -0.229116 0)
(-0.130306 -0.262151 0)
(-0.0718117 -0.231415 0)
(-0.0120637 -0.108402 0)
(-0.00588458 0.0671604 0)
(-0.0296008 0.136053 0)
(-0.05526 0.164695 0)
(-0.0769795 0.166931 0)
(-0.0929484 0.15705 0)
(-0.104494 0.14153 0)
(-0.112501 0.124535 0)
(-0.118391 0.107327 0)
(-0.12309 0.0901262 0)
(-0.127526 0.0721568 0)
(-0.132409 0.0519298 0)
(-0.138289 0.0271311 0)
(-0.145498 -0.0052527 0)
(-0.153706 -0.048646 0)
(-0.161974 -0.105544 0)
(-0.166832 -0.175859 0)
(-0.16338 -0.250966 0)
(-0.140278 -0.309082 0)
(-0.0899975 -0.296478 0)
(-0.0185852 -0.15495 0)
(-0.00950785 0.085273 0)
(-0.0403631 0.161114 0)
(-0.0658564 0.18749 0)
(-0.0833871 0.183342 0)
(-0.0916017 0.167891 0)
(-0.0944122 0.14809 0)
(-0.0932423 0.128328 0)
(-0.0901849 0.109577 0)
(-0.0862898 0.0918704 0)
(-0.0826137 0.0743079 0)
(-0.0799739 0.0553446 0)
(-0.0791816 0.032626 0)
(-0.0811868 0.00299087 0)
(-0.0866601 -0.0375204 0)
(-0.0965281 -0.0927491 0)
(-0.109097 -0.165668 0)
(-0.122322 -0.252373 0)
(-0.122153 -0.336753 0)
(-0.0974233 -0.356372 0)
(-0.0262331 -0.21347 0)
(-0.0155968 0.116259 0)
(-0.0532446 0.19175 0)
(-0.071231 0.208506 0)
(-0.0763133 0.192306 0)
(-0.0686403 0.168689 0)
(-0.0561149 0.143804 0)
(-0.0404919 0.121365 0)
(-0.0244508 0.10158 0)
(-0.00891821 0.084026 0)
(0.00512676 0.0676267 0)
(0.0169721 0.050863 0)
(0.0257692 0.031602 0)
(0.0302066 0.00697937 0)
(0.0288771 -0.0268 0)
(0.0190722 -0.0741407 0)
(0.00036233 -0.140426 0)
(-0.0301514 -0.227636 0)
(-0.0588996 -0.331077 0)
(-0.0780559 -0.392547 0)
(-0.0313066 -0.278476 0)
(-0.0255124 0.1464 0)
(-0.0681822 0.210441 0)
(-0.057372 0.209382 0)
(-0.0334617 0.17918 0)
(0.00308007 0.148726 0)
(0.0391401 0.121376 0)
(0.0741841 0.0988246 0)
(0.105816 0.0803184 0)
(0.133939 0.0648622 0)
(0.158163 0.0512818 0)
(0.178253 0.0382052 0)
(0.193645 0.0239566 0)
(0.203066 0.00633722 0)
(0.204792 -0.0175591 0)
(0.195028 -0.0516216 0)
(0.171454 -0.101586 0)
(0.125783 -0.173944 0)
(0.06764 -0.277157 0)
(-0.00946242 -0.373938 0)
(-0.0215744 -0.322691 0)
(-0.0177682 0.218405 0)
(-0.0171498 0.218825 0)
(0.0581044 0.180845 0)
(0.125713 0.134734 0)
(0.194741 0.100994 0)
(0.252663 0.0763844 0)
(0.30252 0.0583185 0)
(0.343982 0.0449418 0)
(0.378447 0.0346654 0)
(0.406644 0.0263361 0)
(0.429091 0.0188804 0)
(0.445751 0.0112354 0)
(0.455776 0.00207677 0)
(0.45753 -0.0101987 0)
(0.447346 -0.0282196 0)
(0.421614 -0.0559362 0)
(0.369252 -0.101391 0)
(0.291397 -0.181894 0)
(0.154368 -0.292221 0)
(0.0390387 -0.331422 0)
(0.212168 0.130853 0)
(0.300398 0.102372 0)
(0.455686 0.0680285 0)
(0.547038 0.0438209 0)
(0.618661 0.0277754 0)
(0.66966 0.0180739 0)
(0.707659 0.0119563 0)
(0.736088 0.00809028 0)
(0.757644 0.00552831 0)
(0.773963 0.00371934 0)
(0.786006 0.00226593 0)
(0.794091 0.000866551 0)
(0.797874 -0.000812468 0)
(0.796214 -0.0030799 0)
(0.786746 -0.00661673 0)
(0.765684 -0.0120932 0)
(0.723925 -0.0219727 0)
(0.652363 -0.0406514 0)
(0.49472 -0.0748187 0)
(0.28763 -0.13675 0)
)
;

boundaryField
{
    movingWall
    {
        type            fixedValue;
        value           uniform (1 0 0);
    }
    fixedWalls
    {
        type            noSlip;
    }
    frontAndBack
    {
        type            empty;
    }
}


// ************************************************************************* //
