/*--------------------------------*- C++ -*----------------------------------*\
| =========                 |                                                 |
| \\      /  F ield         | OpenFOAM: The Open Source CFD Toolbox           |
|  \\    /   O peration     | Version:  4.1                                   |
|   \\  /    A nd           | Web:      www.OpenFOAM.org                      |
|    \\/     M anipulation  |                                                 |
\*---------------------------------------------------------------------------*/
FoamFile
{
    version     2.0;
    format      ascii;
    class       volVectorField;
    location    "0.1021";
    object      U;
}
// * * * * * * * * * * * * * * * * * * * * * * * * * * * * * * * * * * * * * //

dimensions      [0 1 -1 0 0 0 0];

internalField   nonuniform List<vector> 
441
(
(0.00383923 -0.00490763 0)
(0.0100732 -0.00254099 0)
(-0.000635248 -2.22313e-165 0)
(0.00202139 -3.44525e-266 0)
(-0.00837405 -0.00808579 0)
(-0.00202139 -3.13414e-232 0)
(-1.1607e-202 -5.80224e-203 0)
(-1.45051e-203 -7.6199e-228 0)
(-1.76818e-212 -3.32745e-213 0)
(-0.00631398 9.35692e-266 0)
(-0.0774597 0.0252565 0)
(-0.0970996 0.0131646 0)
(-0.109052 0.00598042 0)
(-0.095485 0.000335594 0)
(-0.0780104 -0.00175856 0)
(-0.0512998 -0.00312188 0)
(-0.0284461 -0.00219692 0)
(-0.00835492 -0.00156853 0)
(0.00356463 0.000849848 0)
(0.0049396 0.00163191 0)
(0.00466998 0.0030876 0)
(0.00399978 -0.00882189 0)
(-0.000654428 0.00693537 0)
(-0.0277502 0.00872718 0)
(-0.0606044 0.0108587 0)
(-0.109785 0.0112183 0)
(-0.156546 -0.00313206 0)
(-0.200687 -0.000122987 0)
(-0.243236 0.00173365 0)
(-0.28096 0.0136458 0)
(-0.318783 0.0689817 0)
(-0.344181 0.0632613 0)
(-0.337707 0.0188705 0)
(-0.321385 -0.00824144 0)
(-0.276771 -0.0321884 0)
(-0.224526 -0.0426444 0)
(-0.159276 -0.0477946 0)
(-0.100604 -0.040585 0)
(-0.0489137 -0.031737 0)
(-0.014502 -0.0136144 0)
(-0.000503514 -0.00345463 0)
(0.00508809 0.00675013 0)
(0.0078827 -0.00875261 0)
(-0.00515806 0.0288218 0)
(-0.055638 0.0585449 0)
(-0.124609 0.0793869 0)
(-0.209289 0.0866409 0)
(-0.297013 0.0866233 0)
(-0.391486 0.0836725 0)
(-0.46865 0.0776698 0)
(-0.544111 0.0726416 0)
(-0.580984 0.0679574 0)
(-0.576403 0.0451357 0)
(-0.556772 -0.0083268 0)
(-0.517241 -0.0542575 0)
(-0.448464 -0.0963035 0)
(-0.366727 -0.118266 0)
(-0.268577 -0.127329 0)
(-0.177912 -0.111353 0)
(-0.0955735 -0.0881991 0)
(-0.0380961 -0.0464446 0)
(-0.00771661 -0.0184127 0)
(0.00652602 0.00804814 0)
(0.00650948 -0.0119077 0)
(-0.0170004 0.0722757 0)
(-0.100775 0.128107 0)
(-0.200069 0.16704 0)
(-0.317304 0.183987 0)
(-0.435538 0.181923 0)
(-0.552124 0.173319 0)
(-0.653136 0.155318 0)
(-0.735953 0.128564 0)
(-0.784443 0.0984774 0)
(-0.793439 0.0387607 0)
(-0.767787 -0.0414653 0)
(-0.714639 -0.116744 0)
(-0.624221 -0.183935 0)
(-0.516004 -0.222398 0)
(-0.385599 -0.238203 0)
(-0.262803 -0.213036 0)
(-0.147675 -0.173273 0)
(-0.065054 -0.100574 0)
(-0.0158554 -0.0494794 0)
(0.00811668 0.00595005 0)
(7.13176e-165 0.00162737 0)
(-0.0259153 0.135638 0)
(-0.147046 0.240793 0)
(-0.271518 0.294384 0)
(-0.419621 0.320926 0)
(-0.563734 0.319483 0)
(-0.707081 0.299847 0)
(-0.828481 0.260317 0)
(-0.928815 0.203148 0)
(-0.987658 0.126188 0)
(-1.00448 0.0288881 0)
(-0.979874 -0.0868528 0)
(-0.91852 -0.197056 0)
(-0.811499 -0.295317 0)
(-0.679247 -0.355804 0)
(-0.51516 -0.38148 0)
(-0.357853 -0.347771 0)
(-0.202997 -0.287124 0)
(-0.0924712 -0.176517 0)
(-0.0188545 -0.0924926 0)
(0.0147308 0.00109225 0)
(-5.77879e-266 0.00600964 0)
(-0.0934096 0.22427 0)
(-0.205631 0.371568 0)
(-0.35516 0.44152 0)
(-0.517338 0.476015 0)
(-0.683382 0.47048 0)
(-0.843517 0.438702 0)
(-0.984515 0.377316 0)
(-1.10023 0.288673 0)
(-1.17662 0.173338 0)
(-1.21099 0.0312833 0)
(-1.19482 -0.128497 0)
(-1.13441 -0.284886 0)
(-1.01612 -0.424918 0)
(-0.863281 -0.518322 0)
(-0.664606 -0.562199 0)
(-0.468932 -0.524156 0)
(-0.267784 -0.441912 0)
(-0.123865 -0.282681 0)
(-0.0218266 -0.159968 0)
(0.0161387 0.00321542 0)
(-0.0240385 0.098352 0)
(-0.130275 0.337547 0)
(-0.259244 0.502898 0)
(-0.423494 0.604139 0)
(-0.605136 0.648228 0)
(-0.789936 0.644077 0)
(-0.970584 0.600062 0)
(-1.13169 0.516022 0)
(-1.26849 0.394963 0)
(-1.36556 0.23668 0)
(-1.42023 0.0475831 0)
(-1.41926 -0.163768 0)
(-1.36691 -0.374753 0)
(-1.24429 -0.567458 0)
(-1.07589 -0.705872 0)
(-0.842111 -0.777847 0)
(-0.605812 -0.742311 0)
(-0.345142 -0.634777 0)
(-0.16513 -0.419151 0)
(-0.00854937 -0.234405 0)
(6.01183e-266 -0.00403468 0)
(-0.0177616 0.162849 0)
(-0.124671 0.460657 0)
(-0.282567 0.665293 0)
(-0.467561 0.788171 0)
(-0.669099 0.842612 0)
(-0.872873 0.836177 0)
(-1.07172 0.780721 0)
(-1.25361 0.675067 0)
(-1.41237 0.522966 0)
(-1.5346 0.324501 0)
(-1.61561 0.0854279 0)
(-1.63793 -0.182934 0)
(-1.60355 -0.459327 0)
(-1.48664 -0.718264 0)
(-1.31106 -0.919842 0)
(-1.04735 -1.03663 0)
(-0.768677 -1.01951 0)
(-0.443709 -0.889164 0)
(-0.21368 -0.614591 0)
(-0.00389437 -0.334803 0)
(2.65763e-24 -1.04212e-24 0)
(-0.0157458 0.236975 0)
(-0.127781 0.600399 0)
(-0.301989 0.844043 0)
(-0.501241 0.988684 0)
(-0.718365 1.05209 0)
(-0.936579 1.04496 0)
(-1.15124 0.979779 0)
(-1.35139 0.855431 0)
(-1.53169 0.675655 0)
(-1.67977 0.439243 0)
(-1.78969 0.151509 0)
(-1.84189 -0.176389 0)
(-1.83485 -0.524566 0)
(-1.73619 -0.861337 0)
(-1.56648 -1.14297 0)
(-1.28355 -1.32365 0)
(-0.968178 -1.34228 0)
(-0.574617 -1.1954 0)
(-0.28533 -0.851011 0)
(-0.00510745 -0.45632 0)
(1.07849e-76 -6.64407e-25 0)
(-0.0135511 0.30691 0)
(-0.124073 0.748626 0)
(-0.306372 1.03941 0)
(-0.512799 1.20507 0)
(-0.738172 1.27828 0)
(-0.964389 1.26894 0)
(-1.18782 1.19571 0)
(-1.40055 1.05505 0)
(-1.5972 0.851522 0)
(-1.76856 0.581774 0)
(-1.90727 0.247909 0)
(-1.9937 -0.138964 0)
(-2.02279 -0.564295 0)
(-1.95648 -0.989324 0)
(-1.80947 -1.37159 0)
(-1.52532 -1.64113 0)
(-1.18507 -1.72694 0)
(-0.726347 -1.58275 0)
(-0.369974 -1.17834 0)
(-0.00742629 -0.635945 0)
(2.99381e-164 -2.69624e-77 0)
(-0.0133484 0.371039 0)
(-0.123275 0.891415 0)
(-0.308672 1.23035 0)
(-0.515786 1.41811 0)
(-0.740691 1.50187 0)
(-0.965502 1.49249 0)
(-1.18705 1.41477 0)
(-1.4018 1.26329 0)
(-1.60411 1.04324 0)
(-1.7902 0.748466 0)
(-1.95123 0.377301 0)
(-2.07152 -0.0612463 0)
(-2.14171 -0.559669 0)
(-2.12216 -1.07558 0)
(-2.01841 -1.57062 0)
(-1.76031 -1.95201 0)
(-1.4205 -2.13622 0)
(-0.916725 -2.01916 0)
(-0.494899 -1.55796 0)
(-0.0826102 -0.839989 0)
(1.80037e-265 0.0134338 0)
(-0.013609 0.444404 0)
(-0.117853 1.04613 0)
(-0.298054 1.43337 0)
(-0.495899 1.63775 0)
(-0.708438 1.72912 0)
(-0.919223 1.71523 0)
(-1.12464 1.63265 0)
(-1.32682 1.47168 0)
(-1.51941 1.24014 0)
(-1.70599 0.92825 0)
(-1.87695 0.52941 0)
(-2.0236 0.0505863 0)
(-2.13401 -0.512934 0)
(-2.17067 -1.11477 0)
(-2.12969 -1.73208 0)
(-1.92829 -2.24565 0)
(-1.6193 -2.56918 0)
(-1.091 -2.52303 0)
(-0.591549 -2.00649 0)
(-0.0766793 -1.15098 0)
(0.0537351 -0.0783703 0)
(-0.0165963 0.4981 0)
(-0.118848 1.1729 0)
(-0.294921 1.60548 0)
(-0.478602 1.82518 0)
(-0.667279 1.92339 0)
(-0.850172 1.90614 0)
(-1.02075 1.82147 0)
(-1.19137 1.6566 0)
(-1.35237 1.42225 0)
(-1.51929 1.10561 0)
(-1.67955 0.695796 0)
(-1.83826 0.196392 0)
(-1.97852 -0.40977 0)
(-2.07565 -1.07895 0)
(-2.11233 -1.80735 0)
(-2.00141 -2.46404 0)
(-1.77146 -2.96664 0)
(-1.24504 -3.05594 0)
(-0.718137 -2.56587 0)
(0.0441433 -1.49264 0)
(2.48401e-231 -0.0134338 0)
(-0.0208492 0.58285 0)
(-0.118227 1.32751 0)
(-0.282858 1.79705 0)
(-0.441929 2.01126 0)
(-0.592839 2.10394 0)
(-0.732152 2.06917 0)
(-0.849873 1.97598 0)
(-0.969244 1.80356 0)
(-1.07689 1.56902 0)
(-1.20074 1.25565 0)
(-1.32608 0.848525 0)
(-1.47324 0.349774 0)
(-1.62433 -0.275393 0)
(-1.77216 -0.981198 0)
(-1.89384 -1.80504 0)
(-1.90881 -2.59054 0)
(-1.81635 -3.32367 0)
(-1.3989 -3.59459 0)
(-0.892646 -3.28891 0)
(-0.00287743 -1.9073 0)
(5.83972e-202 4.59144e-184 0)
(-0.0365836 0.630333 0)
(-0.146969 1.42887 0)
(-0.31061 1.92555 0)
(-0.44395 2.12981 0)
(-0.540146 2.21226 0)
(-0.618309 2.15998 0)
(-0.657209 2.05857 0)
(-0.701989 1.88266 0)
(-0.72851 1.65454 0)
(-0.784196 1.35584 0)
(-0.84503 0.969918 0)
(-0.955849 0.497449 0)
(-1.08716 -0.107358 0)
(-1.27199 -0.805171 0)
(-1.4617 -1.6624 0)
(-1.6358 -2.53797 0)
(-1.71493 -3.45969 0)
(-1.51742 -3.98804 0)
(-1.10491 -3.93808 0)
(-0.0115227 -2.41579 0)
(1.83657e-183 -1.59589e-184 0)
(-0.0551171 0.774683 0)
(-0.179927 1.60587 0)
(-0.33274 2.10368 0)
(-0.427429 2.2423 0)
(-0.453064 2.28566 0)
(-0.453045 2.18713 0)
(-0.396222 2.06415 0)
(-0.347742 1.87589 0)
(-0.274053 1.65331 0)
(-0.238625 1.37381 0)
(-0.210159 1.0204 0)
(-0.2521 0.59453 0)
(-0.330367 0.0392913 0)
(-0.508082 -0.603063 0)
(-0.737922 -1.44422 0)
(-1.04615 -2.33362 0)
(-1.34907 -3.44656 0)
(-1.48006 -4.21112 0)
(-1.39017 -4.81141 0)
(-0.466701 -3.0595 0)
(4.40328e-254 -4.59144e-184 0)
(-0.121001 0.851759 0)
(-0.31367 1.69346 0)
(-0.457887 2.1682 0)
(-0.503146 2.24057 0)
(-0.409955 2.23733 0)
(-0.298313 2.09831 0)
(-0.102789 1.9544 0)
(0.0680994 1.75965 0)
(0.272033 1.54721 0)
(0.419808 1.2946 0)
(0.561834 0.985858 0)
(0.605911 0.623833 0)
(0.612016 0.152469 0)
(0.456424 -0.388158 0)
(0.241967 -1.11634 0)
(-0.222754 -1.91581 0)
(-0.68262 -2.99968 0)
(-1.43548 -3.94571 0)
(-1.63605 -4.8603 0)
(-2.07475 -3.8822 0)
(-2.59875e-264 -0.216355 0)
(-0.177733 1.23118 0)
(-0.412724 1.94717 0)
(-0.492809 2.31567 0)
(-0.438461 2.19455 0)
(-0.191879 2.09465 0)
(0.0633672 1.87947 0)
(0.413621 1.70431 0)
(0.722589 1.50116 0)
(1.06295 1.30383 0)
(1.3317 1.08597 0)
(1.59112 0.833975 0)
(1.73668 0.549504 0)
(1.83982 0.18551 0)
(1.75909 -0.22352 0)
(1.60314 -0.776046 0)
(1.15239 -1.39288 0)
(0.610343 -2.26572 0)
(-0.328363 -3.21382 0)
(-1.06984 -4.26298 0)
(-1.83959 -4.54437 0)
(-0.865422 -2.31903 0)
(-0.400699 1.40812 0)
(-0.724728 1.97989 0)
(-0.514382 2.1882 0)
(-0.228202 1.92257 0)
(0.335087 1.73636 0)
(0.806111 1.48466 0)
(1.36794 1.29709 0)
(1.83023 1.10825 0)
(2.30862 0.940147 0)
(2.68288 0.769511 0)
(3.03878 0.583465 0)
(3.25728 0.383969 0)
(3.43579 0.133568 0)
(3.40181 -0.135919 0)
(3.31581 -0.506265 0)
(2.88137 -0.901361 0)
(2.40278 -1.52025 0)
(1.3751 -2.23642 0)
(0.466009 -3.35508 0)
(-0.703559 -4.00839 0)
(-0.701768 -2.9645 0)
(-0.257829 2.41861 0)
(-0.105895 2.0555 0)
(0.681987 1.86944 0)
(1.33193 1.33669 0)
(2.15318 1.08019 0)
(2.78664 0.839259 0)
(3.44757 0.686078 0)
(3.96681 0.556087 0)
(4.47178 0.451687 0)
(4.85635 0.355606 0)
(5.21096 0.258207 0)
(5.42812 0.158017 0)
(5.60643 0.0377811 0)
(5.58771 -0.090695 0)
(5.53079 -0.265716 0)
(5.16028 -0.458492 0)
(4.76741 -0.791268 0)
(3.83366 -1.24498 0)
(2.86894 -2.25323 0)
(1.09353 -3.3305 0)
(-0.0465775 -3.79863 0)
(1.66671 1.66904 0)
(2.70071 0.974065 0)
(4.53996 0.748088 0)
(5.37934 0.423973 0)
(6.249 0.286925 0)
(6.76251 0.178739 0)
(7.24597 0.121927 0)
(7.57291 0.0813855 0)
(7.87357 0.0546533 0)
(8.07749 0.0337663 0)
(8.25966 0.0151341 0)
(8.34791 -0.00230729 0)
(8.41851 -0.0234668 0)
(8.35846 -0.0441797 0)
(8.2952 -0.079293 0)
(8.00631 -0.111964 0)
(7.74955 -0.200788 0)
(6.99515 -0.293069 0)
(6.26186 -0.624765 0)
(4.04558 -0.996996 0)
(2.00483 -1.81751 0)
)
;

boundaryField
{
    movingWall
    {
        type            fixedValue;
        value           uniform (10 0 0);
    }
    fixedWalls
    {
        type            noSlip;
    }
    frontAndBack
    {
        type            empty;
    }
}


// ************************************************************************* //
