/*--------------------------------*- C++ -*----------------------------------*\
| =========                 |                                                 |
| \\      /  F ield         | OpenFOAM: The Open Source CFD Toolbox           |
|  \\    /   O peration     | Version:  4.1                                   |
|   \\  /    A nd           | Web:      www.OpenFOAM.org                      |
|    \\/     M anipulation  |                                                 |
\*---------------------------------------------------------------------------*/
FoamFile
{
    version     2.0;
    format      ascii;
    class       volScalarField;
    location    "0.00054";
    object      p;
}
// * * * * * * * * * * * * * * * * * * * * * * * * * * * * * * * * * * * * * //

dimensions      [1 -1 -2 0 0 0 0];

internalField   nonuniform List<scalar> 
1681
(
100000
100000
100000
100000
100000
100000
100001
100001
100001
100001
100002
100002
100002
100003
100003
100004
100004
100005
100005
100006
100006
100007
100007
100008
100008
100008
100009
100009
100010
100010
100011
100011
100011
100011
100012
100012
100012
100012
100012
100012
100012
100000
100000
100000
100000
100000
100000
100001
100001
100001
100001
100002
100002
100002
100003
100003
100004
100004
100005
100005
100006
100006
100007
100007
100008
100008
100008
100009
100009
100010
100010
100011
100011
100011
100011
100012
100012
100012
100012
100012
100012
100012
99999.9
99999.9
100000
100000
100000
100000
100000
100001
100001
100001
100002
100002
100002
100003
100003
100004
100004
100005
100005
100006
100006
100007
100007
100008
100008
100009
100009
100009
100010
100010
100011
100011
100011
100012
100012
100012
100012
100012
100012
100012
100012
99999.9
99999.9
99999.9
100000
100000
100000
100000
100001
100001
100001
100002
100002
100002
100003
100003
100004
100004
100005
100005
100006
100006
100007
100007
100008
100008
100009
100009
100009
100010
100010
100011
100011
100011
100012
100012
100012
100012
100012
100012
100013
100013
99999.8
99999.7
99999.7
99999.8
99999.9
100000
100000
100000
100001
100001
100001
100002
100002
100003
100003
100004
100004
100005
100005
100006
100006
100007
100007
100008
100008
100009
100009
100010
100010
100010
100011
100011
100011
100012
100012
100012
100012
100013
100013
100013
100013
99999.6
99999.5
99999.5
99999.6
99999.7
99999.9
100000
100000
100001
100001
100001
100002
100002
100003
100003
100003
100004
100004
100005
100006
100006
100007
100007
100008
100008
100009
100009
100010
100010
100011
100011
100011
100012
100012
100012
100012
100013
100013
100013
100013
100013
99999.3
99999.3
99999.3
99999.3
99999.5
99999.6
99999.8
100000
100000
100001
100001
100001
100002
100002
100003
100003
100004
100004
100005
100005
100006
100007
100007
100008
100008
100009
100009
100010
100010
100011
100011
100011
100012
100012
100012
100013
100013
100013
100013
100013
100013
99998.9
99998.9
99999
99999
99999.2
99999.3
99999.6
99999.8
100000
100000
100001
100001
100002
100002
100003
100003
100004
100004
100005
100005
100006
100007
100007
100008
100008
100009
100009
100010
100010
100011
100011
100012
100012
100012
100013
100013
100013
100013
100013
100013
100013
99998.5
99998.5
99998.6
99998.7
99998.8
99999
99999.2
99999.5
99999.9
100000
100001
100001
100002
100002
100003
100003
100004
100004
100005
100005
100006
100007
100007
100008
100008
100009
100010
100010
100011
100011
100012
100012
100012
100013
100013
100013
100013
100014
100014
100014
100014
99997.9
99998.1
99998.1
99998.3
99998.4
99998.6
99998.9
99999.2
99999.5
99999.9
100000
100001
100001
100002
100002
100003
100004
100004
100005
100005
100006
100007
100007
100008
100009
100009
100010
100010
100011
100011
100012
100012
100013
100013
100013
100014
100014
100014
100014
100014
100014
99997.5
99997.6
99997.7
99997.8
99998
99998.2
99998.5
99998.8
99999.1
99999.6
100000
100000
100001
100002
100002
100003
100003
100004
100005
100005
100006
100007
100007
100008
100009
100009
100010
100011
100011
100012
100012
100013
100013
100013
100014
100014
100014
100014
100015
100015
100015
99997.3
99997.1
99997.2
99997.3
99997.4
99997.7
99998
99998.3
99998.7
99999.2
99999.6
100000
100001
100001
100002
100003
100003
100004
100005
100005
100006
100007
100007
100008
100009
100009
100010
100011
100011
100012
100012
100013
100013
100014
100014
100014
100015
100015
100015
100015
100015
99996.7
99996.5
99996.6
99996.7
99996.9
99997.1
99997.4
99997.8
99998.2
99998.7
99999.2
99999.8
100000
100001
100002
100002
100003
100004
100005
100005
100006
100007
100008
100008
100009
100010
100010
100011
100012
100012
100013
100013
100014
100014
100015
100015
100015
100015
100016
100016
100016
99995.7
99995.7
99995.8
99996
99996.2
99996.5
99996.9
99997.3
99997.7
99998.2
99998.8
99999.4
100000
100001
100001
100002
100003
100004
100004
100005
100006
100007
100008
100008
100009
100010
100011
100011
100012
100013
100013
100014
100014
100015
100015
100016
100016
100016
100016
100016
100016
99994.6
99994.8
99995
99995.2
99995.5
99995.8
99996.2
99996.6
99997.1
99997.7
99998.3
99998.9
99999.6
100000
100001
100002
100003
100003
100004
100005
100006
100007
100008
100009
100009
100010
100011
100012
100012
100013
100014
100014
100015
100015
100016
100016
100017
100017
100017
100017
100017
99993.7
99994
99994.2
99994.4
99994.7
99995.1
99995.5
99996
99996.5
99997.1
99997.7
99998.4
99999.1
99999.9
100001
100002
100002
100003
100004
100005
100006
100007
100008
100009
100010
100010
100011
100012
100013
100014
100014
100015
100016
100016
100017
100017
100017
100018
100018
100018
100018
99993
99993.2
99993.3
99993.6
99993.9
99994.3
99994.7
99995.2
99995.8
99996.4
99997.1
99997.8
99998.6
99999.4
100000
100001
100002
100003
100004
100005
100006
100007
100008
100009
100010
100011
100012
100013
100013
100014
100015
100016
100016
100017
100017
100018
100018
100018
100019
100019
100019
99992.2
99992.3
99992.4
99992.7
99993
99993.4
99993.9
99994.4
99995
99995.7
99996.4
99997.2
99998.1
99998.9
99999.9
100001
100002
100003
100004
100005
100006
100007
100008
100009
100010
100011
100012
100013
100014
100015
100016
100016
100017
100018
100018
100019
100019
100019
100020
100020
100020
99991.2
99991.3
99991.4
99991.7
99992
99992.5
99993
99993.5
99994.2
99994.9
99995.7
99996.6
99997.5
99998.4
99999.4
100000
100001
100003
100004
100005
100006
100007
100008
100009
100010
100011
100012
100014
100014
100015
100016
100017
100018
100019
100019
100020
100020
100020
100021
100021
100021
99990.1
99990.2
99990.3
99990.6
99991
99991.4
99992
99992.6
99993.3
99994.1
99994.9
99995.9
99996.8
99997.8
99998.9
100000
100001
100002
100003
100005
100006
100007
100008
100009
100011
100012
100013
100014
100015
100016
100017
100018
100019
100020
100020
100021
100021
100022
100022
100022
100022
99988.9
99988.9
99989.1
99989.4
99989.8
99990.3
99990.9
99991.6
99992.3
99993.2
99994.1
99995.1
99996.1
99997.2
99998.4
99999.5
100001
100002
100003
100005
100006
100007
100008
100010
100011
100012
100013
100015
100016
100017
100018
100019
100020
100021
100021
100022
100022
100023
100023
100023
100023
99987.5
99987.6
99987.8
99988.1
99988.5
99989.1
99989.7
99990.5
99991.3
99992.2
99993.2
99994.3
99995.4
99996.6
99997.8
99999
100000
100002
100003
100004
100006
100007
100009
100010
100011
100013
100014
100015
100016
100018
100019
100020
100021
100022
100023
100023
100024
100024
100025
100025
100025
99986.1
99986.1
99986.3
99986.7
99987.2
99987.7
99988.4
99989.2
99990.1
99991.1
99992.2
99993.4
99994.6
99995.8
99997.2
99998.5
99999.9
100001
100003
100004
100006
100007
100009
100010
100012
100013
100015
100016
100017
100019
100020
100021
100022
100023
100024
100025
100025
100026
100026
100026
100026
99984.4
99984.5
99984.8
99985.1
99985.6
99986.3
99987.1
99987.9
99988.9
99990
99991.2
99992.4
99993.7
99995.1
99996.5
99997.9
99999.4
100001
100003
100004
100006
100007
100009
100010
100012
100014
100015
100017
100018
100019
100021
100022
100023
100024
100025
100026
100027
100028
100028
100028
100028
99982.7
99982.8
99983
99983.4
99984
99984.7
99985.6
99986.5
99987.6
99988.8
99990
99991.4
99992.8
99994.3
99995.8
99997.3
99998.9
100001
100002
100004
100006
100007
100009
100011
100012
100014
100016
100017
100019
100020
100022
100023
100025
100026
100027
100028
100029
100029
100030
100030
100030
99980.7
99980.8
99981.1
99981.6
99982.2
99983
99983.9
99985
99986.2
99987.4
99988.8
99990.3
99991.8
99993.4
99995
99996.7
99998.4
100000
100002
100004
100006
100007
100009
100011
100013
100015
100016
100018
100020
100022
100023
100025
100026
100027
100029
100030
100031
100031
100032
100032
100032
99978.6
99978.7
99979.1
99979.6
99980.3
99981.1
99982.2
99983.3
99984.6
99986
99987.5
99989.1
99990.8
99992.5
99994.2
99996
99997.9
99999.7
100002
100003
100005
100007
100009
100011
100013
100015
100017
100019
100021
100023
100024
100026
100028
100029
100031
100032
100033
100034
100034
100035
100035
99976.3
99976.4
99976.8
99977.4
99978.2
99979.1
99980.3
99981.6
99983
99984.5
99986.2
99987.9
99989.7
99991.5
99993.4
99995.3
99997.3
99999.2
100001
100003
100005
100007
100009
100011
100014
100016
100018
100020
100022
100024
100026
100028
100029
100031
100033
100034
100035
100036
100037
100037
100037
99973.7
99973.9
99974.3
99975
99975.9
99977
99978.2
99979.7
99981.2
99982.9
99984.7
99986.6
99988.5
99990.5
99992.5
99994.6
99996.7
99998.7
100001
100003
100005
100007
100010
100012
100014
100016
100018
100021
100023
100025
100027
100029
100031
100033
100035
100036
100038
100039
100040
100040
100040
99970.8
99971
99971.5
99972.3
99973.3
99974.6
99976
99977.6
99979.4
99981.2
99983.2
99985.2
99987.3
99989.5
99991.6
99993.8
99996
99998.2
100000
100003
100005
100007
100010
100012
100014
100017
100019
100022
100024
100026
100029
100031
100033
100035
100037
100039
100040
100042
100043
100043
100044
99967.7
99967.9
99968.5
99969.4
99970.6
99972
99973.7
99975.5
99977.4
99979.4
99981.6
99983.8
99986.1
99988.4
99990.7
99993.1
99995.4
99997.7
100000
100002
100005
100007
100010
100012
100015
100017
100020
100022
100025
100028
100030
100033
100035
100038
100040
100042
100044
100045
100046
100047
100047
99964.1
99964.4
99965.2
99966.2
99967.6
99969.3
99971.1
99973.1
99975.3
99977.6
99979.9
99982.3
99984.8
99987.3
99989.8
99992.3
99994.7
99997.2
99999.6
100002
100005
100007
100010
100012
100015
100018
100020
100023
100026
100029
100032
100035
100037
100040
100042
100045
100047
100049
100050
100051
100052
99960.1
99960.6
99961.4
99962.7
99964.4
99966.3
99968.4
99970.7
99973.1
99975.6
99978.2
99980.8
99983.5
99986.3
99988.9
99991.5
99994.1
99996.6
99999.1
100002
100004
100007
100010
100013
100015
100018
100021
100024
100027
100030
100033
100036
100039
100042
100045
100048
100051
100053
100055
100056
100056
99955.6
99956.2
99957.3
99958.9
99960.9
99963.2
99965.6
99968.2
99970.8
99973.5
99976.4
99979.3
99982.3
99985.3
99988.1
99990.9
99993.5
99996
99998.6
100001
100004
100007
100010
100013
100016
100019
100022
100025
100028
100031
100035
100038
100042
100045
100048
100051
100054
100057
100060
100061
100062
99950.4
99951.1
99952.6
99954.7
99957.1
99959.8
99962.6
99965.5
99968.4
99971.4
99974.5
99977.6
99981
99984.3
99987.4
99990.3
99992.9
99995.5
99998
100001
100004
100007
100010
100013
100016
100019
100022
100025
100029
100033
100037
100040
100044
100048
100051
100055
100059
100062
100066
100068
100069
99944.2
99945.3
99947.4
99950
99953.1
99956.3
99959.6
99962.8
99966
99969.2
99972.5
99975.9
99979.8
99983.6
99987
99989.9
99992.5
99994.9
99997.3
100000
100003
100006
100009
100013
100016
100019
100022
100026
100030
100034
100038
100042
100046
100050
100054
100058
100063
100068
100072
100076
100078
99936.7
99938.5
99941.4
99945
99948.9
99952.8
99956.6
99960.2
99963.6
99966.9
99970.3
99973.8
99978.6
99983.2
99986.9
99989.9
99992.3
99994.4
99996.3
99999
100002
100006
100009
100013
100016
100019
100022
100026
100030
100034
100040
100044
100049
100053
100057
100062
100067
100073
100080
100086
100089
99927.2
99930.3
99934.7
99939.7
99944.6
99949.4
99953.7
99957.7
99961.3
99964.6
99967.9
99971.2
99977.4
99983.3
99987.4
99990.3
99992.3
99993.9
99995
99997.7
100001
100005
100009
100013
100017
100019
100022
100026
100030
100035
100041
100047
100051
100056
100060
100064
100070
100078
100089
100098
100103
99914.3
99920.2
99927.1
99934.2
99940.6
99946.3
99951.3
99955.5
99959.1
99962
99964.7
99966.9
99976.3
99984.6
99988.9
99991.4
99992.5
99993
99992.1
99995.4
99999.8
100004
100008
100014
100018
100019
100021
100025
100029
100035
100043
100050
100055
100058
100062
100065
100070
100081
100099
100115
100124
99895.5
99908.2
99919.4
99929.1
99937.2
99943.9
99949.5
99954
99957.5
99959.9
99961.5
99961.1
99975.7
99987.1
99991.4
99993.2
99993.3
99992.7
99989.4
99994.2
99999.2
100003
100007
100014
100019
100018
100021
100025
100028
100033
100044
100052
100057
100060
100063
100065
100067
100083
100111
100136
100156
99861.6
99893.2
99912.1
99925.4
99935.2
99942.6
99948.4
99952.8
99955.5
99955.8
99952.9
99944.7
99985
99997
99997.4
99995.3
99991.7
99985.5
99973
99988.4
99999.6
100005
100010
100022
100020
100010
100019
100025
100029
100037
100056
100061
100062
100062
100061
100057
100050
100086
100140
100170
100204
)
;

boundaryField
{
    movingWall
    {
        type            zeroGradient;
    }
    fixedWalls
    {
        type            zeroGradient;
    }
    frontAndBack
    {
        type            empty;
    }
}


// ************************************************************************* //
