/*--------------------------------*- C++ -*----------------------------------*\
| =========                 |                                                 |
| \\      /  F ield         | OpenFOAM: The Open Source CFD Toolbox           |
|  \\    /   O peration     | Version:  4.1                                   |
|   \\  /    A nd           | Web:      www.OpenFOAM.org                      |
|    \\/     M anipulation  |                                                 |
\*---------------------------------------------------------------------------*/
FoamFile
{
    version     2.0;
    format      ascii;
    class       volVectorField;
    location    "0.09";
    object      U;
}
// * * * * * * * * * * * * * * * * * * * * * * * * * * * * * * * * * * * * * //

dimensions      [0 1 -1 0 0 0 0];

internalField   nonuniform List<vector> 
100
(
(-0.00192721 0.00135611 0)
(-0.00511203 0.00151073 0)
(-0.0121044 0.00161571 0)
(-0.0154033 0.00058491 0)
(-0.0188649 0.000185979 0)
(-0.0193678 -0.00124817 0)
(-0.0173966 -0.00181192 0)
(-0.0142473 -0.00320231 0)
(-0.00653192 -0.00323418 0)
(-0.00267906 -0.0029769 0)
(-0.00322257 0.0057362 0)
(-0.0102242 0.00858241 0)
(-0.0222951 0.0089799 0)
(-0.0285301 0.00593504 0)
(-0.0341927 0.00419686 0)
(-0.0349816 -0.000519331 0)
(-0.0315909 -0.00291704 0)
(-0.0256012 -0.00791319 0)
(-0.012499 -0.00813928 0)
(-0.00414783 -0.00620374 0)
(-0.00386209 0.014814 0)
(-0.0124091 0.0203672 0)
(-0.0265448 0.0201888 0)
(-0.0340357 0.012027 0)
(-0.0409862 0.00693673 0)
(-0.0422596 -0.00445249 0)
(-0.0390218 -0.0110321 0)
(-0.0321041 -0.022937 0)
(-0.0166541 -0.0248206 0)
(-0.00574065 -0.0199707 0)
(-0.00605009 0.0218591 0)
(-0.0175213 0.0309952 0)
(-0.035654 0.0308598 0)
(-0.0454891 0.0200851 0)
(-0.0542673 0.0130286 0)
(-0.0566114 -0.00263014 0)
(-0.0536904 -0.0122453 0)
(-0.0454392 -0.0301808 0)
(-0.025675 -0.0337104 0)
(-0.00925575 -0.0280307 0)
(-0.00710594 0.0386405 0)
(-0.020489 0.0496553 0)
(-0.0413561 0.0487125 0)
(-0.0530282 0.0298791 0)
(-0.0641531 0.0184913 0)
(-0.0682541 -0.00614472 0)
(-0.0677497 -0.022133 0)
(-0.0598685 -0.0523587 0)
(-0.0377408 -0.061562 0)
(-0.0144679 -0.0560105 0)
(-0.0140054 0.0488933 0)
(-0.0342353 0.0646044 0)
(-0.0607614 0.0636507 0)
(-0.0763846 0.0423509 0)
(-0.0896022 0.0292248 0)
(-0.0964293 0.000798799 0)
(-0.0994437 -0.0190767 0)
(-0.0920462 -0.0598105 0)
(-0.065789 -0.0773288 0)
(-0.0262077 -0.0789778 0)
(-0.0157648 0.0878321 0)
(-0.0387551 0.0957217 0)
(-0.0673934 0.0921429 0)
(-0.0841725 0.0573092 0)
(-0.0991463 0.0393304 0)
(-0.107285 0.0016206 0)
(-0.116697 -0.0263803 0)
(-0.113159 -0.088861 0)
(-0.0926568 -0.128616 0)
(-0.0388579 -0.15116 0)
(-0.0404512 0.101588 0)
(-0.0755452 0.114761 0)
(-0.0919618 0.109378 0)
(-0.102631 0.0730985 0)
(-0.107833 0.0539591 0)
(-0.111336 0.0179457 0)
(-0.125684 -0.0103677 0)
(-0.121904 -0.0830331 0)
(-0.116315 -0.147522 0)
(-0.0502439 -0.208009 0)
(-0.035612 0.206735 0)
(-0.032121 0.145387 0)
(-0.0122459 0.122405 0)
(0.0104671 0.07076 0)
(0.0252123 0.0496607 0)
(0.0472443 0.0160144 0)
(0.0409921 -0.0148748 0)
(0.0525375 -0.103167 0)
(0.00689409 -0.201479 0)
(0.00369646 -0.326533 0)
(0.149862 0.163452 0)
(0.236057 0.0888835 0)
(0.373107 0.0686629 0)
(0.432833 0.0351065 0)
(0.475668 0.0206408 0)
(0.505993 0.00240075 0)
(0.492234 -0.00940593 0)
(0.484978 -0.0447994 0)
(0.341879 -0.0856248 0)
(0.201122 -0.183901 0)
)
;

boundaryField
{
    movingWall
    {
        type            fixedValue;
        value           uniform (1 0 0);
    }
    fixedWalls
    {
        type            noSlip;
    }
    frontAndBack
    {
        type            empty;
    }
}


// ************************************************************************* //
