/*--------------------------------*- C++ -*----------------------------------*\
| =========                 |                                                 |
| \\      /  F ield         | OpenFOAM: The Open Source CFD Toolbox           |
|  \\    /   O peration     | Version:  4.1                                   |
|   \\  /    A nd           | Web:      www.OpenFOAM.org                      |
|    \\/     M anipulation  |                                                 |
\*---------------------------------------------------------------------------*/
FoamFile
{
    version     2.0;
    format      ascii;
    class       volScalarField;
    location    "0.0078";
    object      p;
}
// * * * * * * * * * * * * * * * * * * * * * * * * * * * * * * * * * * * * * //

dimensions      [1 -1 -2 0 0 0 0];

internalField   nonuniform List<scalar> 
441
(
100000
99999.9
99999.8
99999.8
99999.9
99999.5
99999.9
100000
100000
100001
100001
100001
100001
100001
100001
100001
100001
100001
100001
100001
100001
100000
100000
100000
100000
100000
100000
100000
100000
100000
100000
100000
100000
100000
100001
100000
100001
100000
100001
100000
100001
100000
100000
99999.9
100000
99999.9
100000
99999.9
100000
100000
100000
100000
100001
100001
100001
100001
100001
100001
100001
100001
100001
100001
100000
100000
100000
100000
100000
100000
100000
100000
100000
100000
100000
100000
100000
100000
100001
100000
100001
100000
100001
100000
100001
100000
100000
99999.7
99999.9
99999.8
99999.9
99999.9
100000
100000
100000
100000
100000
100001
100001
100001
100001
100001
100001
100001
100001
100001
100000
99999.3
99999.8
99999.6
99999.8
99999.8
99999.9
100000
100000
100000
100000
100000
100000
100001
100001
100001
100001
100001
100001
100001
100001
100000
99999
99999.3
99999.3
99999.4
99999.5
99999.6
99999.8
99999.9
100000
100000
100000
100001
100001
100001
100001
100001
100001
100001
100001
100001
100000
99999.2
99999.2
99999.2
99999.3
99999.4
99999.5
99999.6
99999.8
99999.9
100000
100000
100000
100001
100001
100001
100001
100001
100001
100001
100001
100000
99998.7
99998.6
99998.7
99998.8
99998.9
99999.1
99999.3
99999.5
99999.7
100000
100000
100001
100001
100001
100001
100001
100001
100002
100001
100002
100001
99998.5
99998.4
99998.4
99998.5
99998.6
99998.8
99999
99999.3
99999.5
99999.9
100000
100000
100001
100001
100001
100002
100002
100002
100001
100002
100001
99997.7
99997.5
99997.6
99997.8
99997.9
99998.2
99998.4
99998.8
99999.2
99999.6
100000
100001
100001
100001
100002
100002
100002
100003
100002
100003
100003
99997.4
99997.2
99997.2
99997.4
99997.5
99997.8
99998.1
99998.5
99998.9
99999.3
99999.8
100000
100001
100001
100002
100002
100002
100003
100003
100003
100002
99996
99995.9
99995.9
99996.3
99996.4
99996.9
99997.2
99997.8
99998.3
99998.9
99999.6
100000
100001
100002
100003
100003
100004
100004
100004
100005
100001
99995.7
99995.6
99995.5
99995.9
99995.9
99996.4
99996.6
99997.3
99997.8
99998.5
99999.2
99999.9
100001
100002
100003
100003
100004
100004
100004
100005
100003
99993.4
99993.6
99993.3
99994.2
99994.2
99995.1
99995.4
99996.3
99997
99997.8
99998.9
99999.7
100001
100002
100003
100004
100006
100006
100007
100007
100002
99993.4
99993.6
99993
99993.9
99993.6
99994.5
99994.7
99995.6
99996.3
99997.2
99998.2
99999
100000
100001
100003
100004
100006
100006
100006
100007
99998.2
99988.9
99990.2
99989.4
99991.4
99991.1
99992.8
99993.1
99994.5
99995.3
99996.4
99997.7
99998.6
100001
100001
100004
100004
100009
100008
100016
100010
100028
99989.4
99990.9
99989.4
99991.3
99990.6
99992.2
99992.4
99993.7
99994.5
99995.7
99997
99997.8
99999.7
100000
100003
100003
100008
100008
100015
100016
100027
99978
99985.5
99983.4
99988.3
99987.6
99990.5
99990.9
99992.8
99993.8
99995.1
99996.7
99997.6
99999.8
100000
100004
100004
100010
100010
100022
100024
100040
99979
99987.8
99984.9
99989
99988
99990.5
99990.8
99992.6
99993.5
99994.8
99996.3
99997.2
99999.3
99999.6
100003
100003
100009
100009
100021
100025
100046
99937.5
99981.1
99979.3
99989.3
99987.9
99991.3
99991.3
99993.1
99994
99995.2
99996.7
99997.5
99999.7
100000
100004
100004
100012
100013
100034
100043
100101
)
;

boundaryField
{
    movingWall
    {
        type            zeroGradient;
    }
    fixedWalls
    {
        type            zeroGradient;
    }
    frontAndBack
    {
        type            empty;
    }
}


// ************************************************************************* //
