/*--------------------------------*- C++ -*----------------------------------*\
| =========                 |                                                 |
| \\      /  F ield         | OpenFOAM: The Open Source CFD Toolbox           |
|  \\    /   O peration     | Version:  4.1                                   |
|   \\  /    A nd           | Web:      www.OpenFOAM.org                      |
|    \\/     M anipulation  |                                                 |
\*---------------------------------------------------------------------------*/
FoamFile
{
    version     2.0;
    format      ascii;
    class       volVectorField;
    location    "0.0986";
    object      U;
}
// * * * * * * * * * * * * * * * * * * * * * * * * * * * * * * * * * * * * * //

dimensions      [0 1 -1 0 0 0 0];

internalField   nonuniform List<vector> 
441
(
(0.00381801 -0.0048917 0)
(0.0100114 -0.00254071 0)
(-0.000635176 -2.22041e-165 0)
(0.00201053 -3.42332e-266 0)
(-0.00837152 -0.00804237 0)
(-0.00201053 -3.11967e-232 0)
(-1.15701e-202 -5.76668e-203 0)
(-1.44162e-203 -7.5728e-228 0)
(-1.75978e-212 -3.30682e-213 0)
(-0.0062841 9.31396e-266 0)
(-0.0770854 0.0251371 0)
(-0.0966692 0.0131097 0)
(-0.108624 0.00596281 0)
(-0.0951878 0.000344999 0)
(-0.0778597 -0.0017416 0)
(-0.0513093 -0.00310565 0)
(-0.0285668 -0.00219173 0)
(-0.00852875 -0.00157514 0)
(0.00340549 0.000829993 0)
(0.00485353 0.0016094 0)
(0.00465053 0.00307097 0)
(0.00396888 -0.00875438 0)
(-0.000704493 0.00691526 0)
(-0.0276911 0.0086825 0)
(-0.0603737 0.0108325 0)
(-0.10928 0.0111581 0)
(-0.155744 -0.00315111 0)
(-0.199597 -0.000127784 0)
(-0.241865 0.00172186 0)
(-0.279355 0.0135765 0)
(-0.316976 0.0686464 0)
(-0.342291 0.0629938 0)
(-0.335947 0.018869 0)
(-0.319854 -0.00808408 0)
(-0.275613 -0.0319166 0)
(-0.22377 -0.0423499 0)
(-0.158923 -0.0475348 0)
(-0.100561 -0.0404242 0)
(-0.0490591 -0.0316899 0)
(-0.0146952 -0.0136838 0)
(-0.000623478 -0.00357301 0)
(0.0050613 0.00666091 0)
(0.00783141 -0.00865696 0)
(-0.0051631 0.028732 0)
(-0.0553932 0.0582662 0)
(-0.123959 0.0789559 0)
(-0.208099 0.0861188 0)
(-0.295266 0.0860587 0)
(-0.389132 0.0831229 0)
(-0.465783 0.0771713 0)
(-0.540797 0.0722233 0)
(-0.577488 0.0676494 0)
(-0.573026 0.0450605 0)
(-0.553651 -0.00803051 0)
(-0.514535 -0.0536741 0)
(-0.446317 -0.0955217 0)
(-0.365188 -0.117446 0)
(-0.267648 -0.1266 0)
(-0.177482 -0.110852 0)
(-0.095495 -0.0879684 0)
(-0.0381826 -0.046491 0)
(-0.00780419 -0.0186007 0)
(0.0064978 0.00788689 0)
(0.00648196 -0.0117787 0)
(-0.0168747 0.0719514 0)
(-0.100154 0.127413 0)
(-0.198811 0.166056 0)
(-0.31528 0.182831 0)
(-0.432733 0.180726 0)
(-0.54856 0.172184 0)
(-0.648933 0.154341 0)
(-0.731285 0.127851 0)
(-0.779576 0.0980897 0)
(-0.788672 0.0388714 0)
(-0.763355 -0.0407918 0)
(-0.710733 -0.115609 0)
(-0.621015 -0.182492 0)
(-0.513567 -0.220883 0)
(-0.383952 -0.236829 0)
(-0.261838 -0.212024 0)
(-0.147243 -0.172706 0)
(-0.0649387 -0.100478 0)
(-0.0158586 -0.049655 0)
(0.00809648 0.00574452 0)
(7.09547e-165 0.00162049 0)
(-0.0257063 0.134901 0)
(-0.146061 0.239386 0)
(-0.269696 0.292559 0)
(-0.416815 0.318864 0)
(-0.559982 0.317391 0)
(-0.702425 0.29791 0)
(-0.823103 0.258722 0)
(-0.922925 0.202072 0)
(-0.981568 0.125777 0)
(-0.998506 0.029249 0)
(-0.974265 -0.0856974 0)
(-0.913501 -0.195246 0)
(-0.807268 -0.293065 0)
(-0.675902 -0.353424 0)
(-0.51276 -0.379275 0)
(-0.356309 -0.346056 0)
(-0.20218 -0.286041 0)
(-0.0921356 -0.17613 0)
(-0.0187755 -0.092543 0)
(0.0147103 0.000908384 0)
(-5.74957e-266 0.00597439 0)
(-0.0928142 0.222937 0)
(-0.204243 0.369277 0)
(-0.352768 0.438708 0)
(-0.513876 0.472934 0)
(-0.67887 0.467431 0)
(-0.838055 0.435941 0)
(-0.978294 0.375104 0)
(-1.0935 0.287245 0)
(-1.16966 0.172865 0)
(-1.20411 0.031874 0)
(-1.1883 -0.126861 0)
(-1.12847 -0.282372 0)
(-1.011 -0.421796 0)
(-0.859106 -0.514973 0)
(-0.661487 -0.559016 0)
(-0.466814 -0.521559 0)
(-0.266581 -0.44013 0)
(-0.123303 -0.281851 0)
(-0.0216456 -0.159783 0)
(0.0161384 0.00306246 0)
(-0.0238976 0.097737 0)
(-0.129443 0.33544 0)
(-0.257549 0.499694 0)
(-0.420742 0.60025 0)
(-0.601266 0.644055 0)
(-0.784993 0.639994 0)
(-0.964679 0.596423 0)
(-1.12503 0.513158 0)
(-1.26132 0.393156 0)
(-1.35815 0.236129 0)
(-1.41288 0.048379 0)
(-1.41221 -0.161667 0)
(-1.3604 -0.371542 0)
(-1.23856 -0.563445 0)
(-1.07109 -0.701493 0)
(-0.838404 -0.773575 0)
(-0.603201 -0.73868 0)
(-0.343621 -0.632129 0)
(-0.164405 -0.417747 0)
(-0.00839615 -0.233888 0)
(6.00534e-266 -0.00403459 0)
(-0.0176555 0.161832 0)
(-0.123895 0.457768 0)
(-0.280839 0.661086 0)
(-0.464756 0.783186 0)
(-0.665189 0.837346 0)
(-0.867924 0.831094 0)
(-1.06587 0.776246 0)
(-1.24705 0.671586 0)
(-1.40534 0.520794 0)
(-1.52734 0.323846 0)
(-1.60836 0.0863737 0)
(-1.63092 -0.180447 0)
(-1.59697 -0.455505 0)
(-1.48072 -0.713434 0)
(-1.30596 -0.914462 0)
(-1.04329 -1.03124 0)
(-0.765719 -1.01473 0)
(-0.441962 -0.885481 0)
(-0.212842 -0.612398 0)
(-0.00386194 -0.33388 0)
(2.64948e-24 -1.04613e-24 0)
(-0.0156574 0.235499 0)
(-0.127079 0.596679 0)
(-0.300393 0.838823 0)
(-0.498659 0.982624 0)
(-0.714784 1.04578 0)
(-0.932084 1.03894 0)
(-1.14597 0.974538 0)
(-1.34552 0.851391 0)
(-1.52543 0.673149 0)
(-1.67333 0.438476 0)
(-1.78324 0.15255 0)
(-1.8356 -0.173614 0)
(-1.82885 -0.520266 0)
(-1.73067 -0.855842 0)
(-1.56157 -1.13673 0)
(-1.2795 -1.31723 0)
(-0.965081 -1.33634 0)
(-0.572706 -1.19061 0)
(-0.284374 -0.84791 0)
(-0.00509 -0.454939 0)
(1.07562e-76 -6.62369e-25 0)
(-0.0134928 0.305108 0)
(-0.123546 0.744228 0)
(-0.305119 1.03333 0)
(-0.510751 1.1981 0)
(-0.735328 1.27111 0)
(-0.960838 1.26216 0)
(-1.18369 1.18987 0)
(-1.39601 1.05058 0)
(-1.59241 0.848768 0)
(-1.76366 0.580922 0)
(-1.90238 0.249003 0)
(-1.98891 -0.136019 0)
(-2.01814 -0.559706 0)
(-1.95207 -0.983407 0)
(-1.80538 -1.36475 0)
(-1.52176 -1.63391 0)
(-1.18217 -1.72001 0)
(-0.724445 -1.5769 0)
(-0.368951 -1.17426 0)
(-0.00738782 -0.63403 0)
(2.9865e-164 -2.68905e-77 0)
(-0.0133182 0.368988 0)
(-0.122971 0.886505 0)
(-0.307914 1.22362 0)
(-0.514522 1.41047 0)
(-0.738927 1.49407 0)
(-0.963319 1.48519 0)
(-1.18455 1.40854 0)
(-1.39913 1.25858 0)
(-1.60137 1.04038 0)
(-1.78749 0.747598 0)
(-1.94858 0.378439 0)
(-2.06893 -0.0582304 0)
(-2.13913 -0.554988 0)
(-2.11957 -1.06953 0)
(-2.01579 -1.56354 0)
(-1.75779 -1.94438 0)
(-1.41821 -2.12863 0)
(-0.915031 -2.01246 0)
(-0.493874 -1.55302 0)
(-0.0823639 -0.837546 0)
(1.79849e-265 0.0134157 0)
(-0.0136118 0.442269 0)
(-0.117827 1.041 0)
(-0.297925 1.42633 0)
(-0.495628 1.62978 0)
(-0.708035 1.72103 0)
(-0.918743 1.70773 0)
(-1.12416 1.62632 0)
(-1.32644 1.46697 0)
(-1.51917 1.23734 0)
(-1.70592 0.927473 0)
(-1.87702 0.530614 0)
(-2.02372 0.0535954 0)
(-2.13403 -0.508352 0)
(-2.17047 -1.1089 0)
(-2.12912 -1.72519 0)
(-1.92737 -2.23811 0)
(-1.61809 -2.56144 0)
(-1.08989 -2.51589 0)
(-0.590776 -2.00097 0)
(-0.0765818 -1.14801 0)
(0.0536627 -0.0781195 0)
(-0.0166319 0.496028 0)
(-0.119121 1.16786 0)
(-0.295479 1.5985 0)
(-0.479427 1.81726 0)
(-0.668376 1.91538 0)
(-0.85156 1.89877 0)
(-1.02246 1.81532 0)
(-1.19344 1.65212 0)
(-1.35478 1.4197 0)
(-1.522 1.10504 0)
(-1.68245 0.697107 0)
(-1.84121 0.199354 0)
(-1.9813 -0.405424 0)
(-2.07805 -1.07351 0)
(-2.11409 -1.80101 0)
(-2.00243 -2.45706 0)
(-1.77168 -2.95925 0)
(-1.24481 -3.0488 0)
(-0.717732 -2.55991 0)
(0.0439695 -1.48933 0)
(2.48036e-231 -0.0134157 0)
(-0.0209166 0.581019 0)
(-0.118794 1.3229 0)
(-0.284101 1.79056 0)
(-0.44385 2.00382 0)
(-0.595434 2.09641 0)
(-0.735388 2.06228 0)
(-0.853721 1.97031 0)
(-0.973645 1.79953 0)
(-1.08176 1.56685 0)
(-1.20597 1.25535 0)
(-1.33152 0.849959 0)
(-1.47869 0.35265 0)
(-1.62955 -0.27138 0)
(-1.7769 -0.976365 0)
(-1.8978 -1.79955 0)
(-1.91174 -2.58456 0)
(-1.81811 -3.3172 0)
(-1.39962 -3.58807 0)
(-0.892655 -3.28302 0)
(-0.00289785 -1.90388 0)
(5.83661e-202 4.59022e-184 0)
(-0.0366759 0.628888 0)
(-0.147782 1.425 0)
(-0.312439 1.91992 0)
(-0.446824 2.12324 0)
(-0.544052 2.20555 0)
(-0.623151 2.15385 0)
(-0.662883 2.05358 0)
(-0.70834 1.8792 0)
(-0.735373 1.6528 0)
(-0.791377 1.35581 0)
(-0.852335 0.971431 0)
(-0.963069 0.500186 0)
(-1.09409 -0.103737 0)
(-1.27837 -0.801013 0)
(-1.46727 -1.65788 0)
(-1.64027 -2.53319 0)
(-1.71807 -3.45454 0)
(-1.51915 -3.98267 0)
(-1.10544 -3.93285 0)
(-0.0115095 -2.41248 0)
(1.83609e-183 -1.55637e-184 0)
(-0.0552236 0.773744 0)
(-0.180894 1.603 0)
(-0.334959 2.09924 0)
(-0.430961 2.23693 0)
(-0.457893 2.28009 0)
(-0.459019 2.182 0)
(-0.40316 2.05998 0)
(-0.355397 1.87304 0)
(-0.282175 1.65196 0)
(-0.24695 1.37395 0)
(-0.218457 1.02187 0)
(-0.260155 0.597013 0)
(-0.338008 0.0424543 0)
(-0.515128 -0.599588 0)
(-0.744202 -1.44064 0)
(-1.05141 -2.33007 0)
(-1.35307 -3.44285 0)
(-1.48253 -4.20722 0)
(-1.39122 -4.80729 0)
(-0.466565 -3.05661 0)
(4.40282e-254 -4.59022e-184 0)
(-0.1211 0.85137 0)
(-0.314626 1.6917 0)
(-0.460159 2.16512 0)
(-0.506835 2.23661 0)
(-0.415065 2.23306 0)
(-0.304664 2.09429 0)
(-0.110159 1.95109 0)
(0.0600218 1.75737 0)
(0.263553 1.54613 0)
(0.411243 1.29475 0)
(0.553447 0.987092 0)
(0.597927 0.625907 0)
(0.60458 0.155077 0)
(0.44966 -0.38536 0)
(0.235931 -1.11361 0)
(-0.227897 -1.9133 0)
(-0.686768 -2.99732 0)
(-1.43822 -3.9433 0)
(-1.63748 -4.85773 0)
(-2.0745 -3.87995 0)
(-2.59753e-264 -0.216292 0)
(-0.177788 1.23128 0)
(-0.413432 1.94648 0)
(-0.494652 2.31395 0)
(-0.441602 2.19203 0)
(-0.196382 2.09174 0)
(0.0576481 1.8766 0)
(0.40689 1.70187 0)
(0.715155 1.49942 0)
(1.05513 1.30296 0)
(1.32383 1.086 0)
(1.58349 0.834848 0)
(1.72953 0.55103 0)
(1.8333 0.187452 0)
(1.75331 -0.221442 0)
(1.5981 -0.774078 0)
(1.14812 -1.3912 0)
(0.60682 -2.26437 0)
(-0.330939 -3.21262 0)
(-1.07139 -4.26181 0)
(-1.83989 -4.54304 0)
(-0.865166 -2.31866 0)
(-0.400676 1.40848 0)
(-0.724958 1.97992 0)
(-0.515306 2.18755 0)
(-0.230073 1.92127 0)
(0.332097 1.73467 0)
(0.802038 1.48287 0)
(1.36289 1.2955 0)
(1.82446 1.10705 0)
(2.3024 0.939498 0)
(2.67654 0.769454 0)
(3.03262 0.583969 0)
(3.25156 0.38492 0)
(3.43069 0.134806 0)
(3.39745 -0.134588 0)
(3.31218 -0.505023 0)
(2.87845 -0.900353 0)
(2.40045 -1.51954 0)
(1.37335 -2.23595 0)
(0.464811 -3.35472 0)
(-0.70406 -4.00797 0)
(-0.701685 -2.96443 0)
(-0.257748 2.4189 0)
(-0.105674 2.05575 0)
(0.682035 1.86938 0)
(1.3315 1.33626 0)
(2.15199 1.0795 0)
(2.78461 0.838468 0)
(3.44472 0.68534 0)
(3.96328 0.555523 0)
(4.46779 0.451378 0)
(4.85218 0.355581 0)
(5.20687 0.25845 0)
(5.42438 0.158471 0)
(5.6032 0.0383601 0)
(5.58511 -0.0900898 0)
(5.52881 -0.265183 0)
(5.15888 -0.458096 0)
(4.76644 -0.791058 0)
(3.83301 -1.2449 0)
(2.86851 -2.25325 0)
(1.09333 -3.33046 0)
(-0.0465285 -3.79867 0)
(1.66678 1.66911 0)
(2.701 0.974136 0)
(4.54034 0.748115 0)
(5.37959 0.423939 0)
(6.24894 0.286845 0)
(6.76202 0.17864 0)
(7.24504 0.121839 0)
(7.57161 0.081328 0)
(7.87202 0.0546387 0)
(8.07587 0.0337955 0)
(8.25811 0.0152005 0)
(8.34658 -0.0022183 0)
(8.41749 -0.0233724 0)
(8.3578 -0.0440986 0)
(8.29486 -0.0792395 0)
(8.00624 -0.111946 0)
(7.74962 -0.200809 0)
(6.99527 -0.293116 0)
(6.26195 -0.624828 0)
(4.04563 -0.997049 0)
(2.00489 -1.81757 0)
)
;

boundaryField
{
    movingWall
    {
        type            fixedValue;
        value           uniform (10 0 0);
    }
    fixedWalls
    {
        type            noSlip;
    }
    frontAndBack
    {
        type            empty;
    }
}


// ************************************************************************* //
