/*--------------------------------*- C++ -*----------------------------------*\
| =========                 |                                                 |
| \\      /  F ield         | OpenFOAM: The Open Source CFD Toolbox           |
|  \\    /   O peration     | Version:  4.1                                   |
|   \\  /    A nd           | Web:      www.OpenFOAM.org                      |
|    \\/     M anipulation  |                                                 |
\*---------------------------------------------------------------------------*/
FoamFile
{
    version     2.0;
    format      ascii;
    class       volVectorField;
    location    "0.114";
    object      U;
}
// * * * * * * * * * * * * * * * * * * * * * * * * * * * * * * * * * * * * * //

dimensions      [0 1 -1 0 0 0 0];

internalField   nonuniform List<vector> 
100
(
(-0.00172312 0.00105171 0)
(-0.00477762 0.00127764 0)
(-0.01215 0.00148006 0)
(-0.0158435 0.000524581 0)
(-0.0198036 0.000176026 0)
(-0.0205747 -0.00125362 0)
(-0.0186078 -0.00184558 0)
(-0.0150977 -0.00328778 0)
(-0.00662692 -0.00326146 0)
(-0.00259359 -0.00285829 0)
(-0.00313867 0.00550597 0)
(-0.010572 0.00907308 0)
(-0.02398 0.00989493 0)
(-0.0313611 0.00689653 0)
(-0.0381369 0.00497633 0)
(-0.0394005 -0.000240924 0)
(-0.0358037 -0.00324745 0)
(-0.0287689 -0.00895889 0)
(-0.0137118 -0.00906807 0)
(-0.00424462 -0.00633749 0)
(-0.00384951 0.0147598 0)
(-0.0132951 0.0218923 0)
(-0.0294063 0.0225199 0)
(-0.0385821 0.0142219 0)
(-0.0471516 0.00851497 0)
(-0.0492279 -0.0041759 0)
(-0.0458977 -0.0123053 0)
(-0.0376072 -0.0260052 0)
(-0.0192973 -0.027913 0)
(-0.00612366 -0.0211326 0)
(-0.00605932 0.0225022 0)
(-0.0186546 0.0343637 0)
(-0.0392037 0.0354247 0)
(-0.0512211 0.0243419 0)
(-0.0622055 0.0162151 0)
(-0.0659998 -0.00165822 0)
(-0.0635515 -0.0140708 0)
(-0.0540802 -0.0354997 0)
(-0.0307035 -0.0398207 0)
(-0.010189 -0.0312189 0)
(-0.00711834 0.0397035 0)
(-0.0217599 0.0546989 0)
(-0.0454307 0.0556186 0)
(-0.059857 0.0364596 0)
(-0.0740787 0.0237359 0)
(-0.0807762 -0.00390988 0)
(-0.0820278 -0.0241197 0)
(-0.0736881 -0.0602169 0)
(-0.0472219 -0.0723644 0)
(-0.0165208 -0.0630895 0)
(-0.0140253 0.0508244 0)
(-0.0354891 0.0720306 0)
(-0.0651431 0.0737485 0)
(-0.0840421 0.0524172 0)
(-0.101161 0.0380577 0)
(-0.111788 0.00606299 0)
(-0.118233 -0.0196725 0)
(-0.111848 -0.0700109 0)
(-0.0812871 -0.0953497 0)
(-0.0298344 -0.0938138 0)
(-0.0156611 0.0901307 0)
(-0.0390381 0.105074 0)
(-0.0704288 0.105415 0)
(-0.0900987 0.0710452 0)
(-0.10895 0.0522852 0)
(-0.120944 0.0111222 0)
(-0.134866 -0.0238526 0)
(-0.133238 -0.0998955 0)
(-0.110043 -0.155656 0)
(-0.0431749 -0.177497 0)
(-0.0404228 0.103744 0)
(-0.0747107 0.125317 0)
(-0.0913802 0.125121 0)
(-0.101556 0.0898601 0)
(-0.106863 0.0704826 0)
(-0.10977 0.0314429 0)
(-0.125615 -0.00460483 0)
(-0.123091 -0.0941107 0)
(-0.120063 -0.181394 0)
(-0.0513613 -0.244891 0)
(-0.0359542 0.208188 0)
(-0.0287446 0.154156 0)
(-0.00306482 0.135538 0)
(0.0271787 0.0841939 0)
(0.0482371 0.0623108 0)
(0.07785 0.0265945 0)
(0.0755026 -0.0091933 0)
(0.0881488 -0.109668 0)
(0.03137 -0.228055 0)
(0.00918095 -0.357584 0)
(0.148873 0.162715 0)
(0.237643 0.089864 0)
(0.381301 0.0711529 0)
(0.449547 0.0380496 0)
(0.499934 0.0233688 0)
(0.537842 0.00463217 0)
(0.529364 -0.00827545 0)
(0.523717 -0.0450021 0)
(0.373024 -0.0885309 0)
(0.209969 -0.190335 0)
)
;

boundaryField
{
    movingWall
    {
        type            fixedValue;
        value           uniform (1 0 0);
    }
    fixedWalls
    {
        type            noSlip;
    }
    frontAndBack
    {
        type            empty;
    }
}


// ************************************************************************* //
