/*--------------------------------*- C++ -*----------------------------------*\
| =========                 |                                                 |
| \\      /  F ield         | OpenFOAM: The Open Source CFD Toolbox           |
|  \\    /   O peration     | Version:  4.1                                   |
|   \\  /    A nd           | Web:      www.OpenFOAM.org                      |
|    \\/     M anipulation  |                                                 |
\*---------------------------------------------------------------------------*/
FoamFile
{
    version     2.0;
    format      ascii;
    class       volVectorField;
    location    "0.75";
    object      U;
}
// * * * * * * * * * * * * * * * * * * * * * * * * * * * * * * * * * * * * * //

dimensions      [0 1 -1 0 0 0 0];

internalField   nonuniform List<vector> 
400
(
(1.18549e-05 -1.03537e-05 0)
(-0.000576838 0.000208077 0)
(-0.00186925 0.000336921 0)
(-0.00340456 0.000391583 0)
(-0.00500616 0.000385545 0)
(-0.00649577 0.000351836 0)
(-0.00780397 0.000300307 0)
(-0.00887023 0.000238031 0)
(-0.00965792 0.000166156 0)
(-0.0101327 8.59328e-05 0)
(-0.0102678 -1.73461e-06 0)
(-0.010043 -9.48987e-05 0)
(-0.00944731 -0.000190814 0)
(-0.0084859 -0.000284487 0)
(-0.0071799 -0.000369244 0)
(-0.00559493 -0.000430733 0)
(-0.00382541 -0.000452029 0)
(-0.00210102 -0.000393706 0)
(-0.000647621 -0.000244703 0)
(1.10182e-05 4.89331e-06 0)
(-0.000206424 0.000571953 0)
(-0.00196534 0.00192613 0)
(-0.00501649 0.00274074 0)
(-0.00850366 0.00304717 0)
(-0.0120744 0.00298232 0)
(-0.0153824 0.00270233 0)
(-0.0182698 0.00228794 0)
(-0.020606 0.00178355 0)
(-0.0223082 0.00120845 0)
(-0.0233057 0.000575965 0)
(-0.0235463 -0.0001013 0)
(-0.0229946 -0.000806622 0)
(-0.0216362 -0.00151699 0)
(-0.0194906 -0.00219808 0)
(-0.0166126 -0.00279944 0)
(-0.0131413 -0.00323712 0)
(-0.00927727 -0.00339046 0)
(-0.00545506 -0.00307278 0)
(-0.00211229 -0.00215211 0)
(-0.000213962 -0.00063295 0)
(-0.000360371 0.00190375 0)
(-0.00298454 0.00501881 0)
(-0.00723485 0.00677775 0)
(-0.011983 0.00738617 0)
(-0.0167855 0.00718032 0)
(-0.0212095 0.00647829 0)
(-0.0250539 0.00546101 0)
(-0.0281517 0.00422846 0)
(-0.030397 0.00283114 0)
(-0.0317008 0.00130416 0)
(-0.0319984 -0.000319397 0)
(-0.0312463 -0.00199879 0)
(-0.0294275 -0.00367934 0)
(-0.026567 -0.00528236 0)
(-0.0227351 -0.00669213 0)
(-0.0181073 -0.00772596 0)
(-0.012937 -0.00811867 0)
(-0.00776907 -0.0074889 0)
(-0.00315471 -0.0055078 0)
(-0.0003641 -0.00204529 0)
(-0.000462163 0.00363006 0)
(-0.00368494 0.00887896 0)
(-0.00878163 0.0117057 0)
(-0.0144018 0.0126116 0)
(-0.0200416 0.0121969 0)
(-0.0252135 0.0109696 0)
(-0.0296971 0.00922395 0)
(-0.0333077 0.00712203 0)
(-0.0359292 0.00474935 0)
(-0.0374625 0.00216499 0)
(-0.0378339 -0.000575863 0)
(-0.0369904 -0.00340685 0)
(-0.0349055 -0.00623889 0)
(-0.0315978 -0.00894376 0)
(-0.0271354 -0.0113309 0)
(-0.0217096 -0.013103 0)
(-0.0156028 -0.0138252 0)
(-0.00944658 -0.0128821 0)
(-0.00388538 -0.00968224 0)
(-0.00046072 -0.00385477 0)
(-0.000530428 0.00567389 0)
(-0.00422691 0.0133864 0)
(-0.0100317 0.0174008 0)
(-0.0163876 0.0186052 0)
(-0.0227341 0.0179232 0)
(-0.0285361 0.0160831 0)
(-0.0335633 0.013507 0)
(-0.0376221 0.0104238 0)
(-0.0405927 0.0069557 0)
(-0.0423691 0.00318479 0)
(-0.0428676 -0.000813548 0)
(-0.0420203 -0.00494952 0)
(-0.0397811 -0.00910027 0)
(-0.0361475 -0.013085 0)
(-0.0311695 -0.0166283 0)
(-0.0250397 -0.0192979 0)
(-0.0180627 -0.0204542 0)
(-0.0109672 -0.0191969 0)
(-0.00451054 -0.014608 0)
(-0.000528262 -0.00600385 0)
(-0.00059832 0.00797128 0)
(-0.00477259 0.0184511 0)
(-0.011307 0.0237725 0)
(-0.0184259 0.0252806 0)
(-0.0255069 0.0242795 0)
(-0.0319657 0.0217522 0)
(-0.0375656 0.0182638 0)
(-0.0421096 0.0141149 0)
(-0.0454785 0.00946317 0)
(-0.0475614 0.00440917 0)
(-0.048263 -0.000957999 0)
(-0.0474935 -0.00653239 0)
(-0.0451749 -0.0121628 0)
(-0.0412666 -0.0176164 0)
(-0.0357805 -0.0225221 0)
(-0.0288945 -0.0262858 0)
(-0.0209306 -0.028014 0)
(-0.0127385 -0.0264516 0)
(-0.00522784 -0.0202825 0)
(-0.000603625 -0.00846221 0)
(-0.000681132 0.0105693 0)
(-0.0054255 0.0241666 0)
(-0.0128215 0.0309337 0)
(-0.0208358 0.0327509 0)
(-0.0287721 0.0313707 0)
(-0.0359924 0.0280713 0)
(-0.0422582 0.0235817 0)
(-0.0473753 0.0182791 0)
(-0.051231 0.0123549 0)
(-0.0537138 0.00592063 0)
(-0.054716 -0.0009318 0)
(-0.0541197 -0.00809311 0)
(-0.0518011 -0.0153952 0)
(-0.0476586 -0.0225582 0)
(-0.0416371 -0.0291044 0)
(-0.0338723 -0.0342422 0)
(-0.0246895 -0.036751 0)
(-0.0150867 -0.0349202 0)
(-0.00618614 -0.026933 0)
(-0.000705519 -0.0113288 0)
(-0.000791729 0.0135389 0)
(-0.00626084 0.0306724 0)
(-0.0147253 0.0390419 0)
(-0.0238301 0.0411616 0)
(-0.0327889 0.0393218 0)
(-0.0409081 0.0351464 0)
(-0.0479546 0.0295547 0)
(-0.0537488 0.0230069 0)
(-0.0581952 0.0157246 0)
(-0.0611903 0.00781919 0)
(-0.0626174 -0.00063106 0)
(-0.062326 -0.00953466 0)
(-0.0601312 -0.0187279 0)
(-0.0558407 -0.0278992 0)
(-0.0492893 -0.0364581 0)
(-0.0405188 -0.0433727 0)
(-0.0298202 -0.0469918 0)
(-0.0183573 -0.0449978 0)
(-0.00754709 -0.0349052 0)
(-0.000856262 -0.0147567 0)
(-0.000943108 0.0170012 0)
(-0.007349 0.0381888 0)
(-0.0171501 0.0483335 0)
(-0.0275831 0.0507197 0)
(-0.0377525 0.048301 0)
(-0.0469123 0.0431114 0)
(-0.0548494 0.0362958 0)
(-0.0614185 0.0284036 0)
(-0.0665591 0.0196832 0)
(-0.0701912 0.0102296 0)
(-0.0721996 8.43027e-05 0)
(-0.072402 -0.0107111 0)
(-0.070539 -0.022034 0)
(-0.0662901 -0.0335749 0)
(-0.0593181 -0.0446397 0)
(-0.0494812 -0.0539147 0)
(-0.0369509 -0.059176 0)
(-0.0230372 -0.0572685 0)
(-0.00955297 -0.0447434 0)
(-0.00109055 -0.019004 0)
(-0.00115338 0.0210998 0)
(-0.00878351 0.0469675 0)
(-0.0202562 0.0590638 0)
(-0.0322904 0.0616281 0)
(-0.0438583 0.0584552 0)
(-0.0541797 0.0520696 0)
(-0.0630847 0.0438873 0)
(-0.0704949 0.0345528 0)
(-0.0764112 0.0243358 0)
(-0.0808041 0.0132952 0)
(-0.08358 0.00140456 0)
(-0.0845368 -0.01139 0)
(-0.083335 -0.025065 0)
(-0.0794878 -0.0393791 0)
(-0.0724042 -0.0535776 0)
(-0.0616136 -0.066047 0)
(-0.047002 -0.0738114 0)
(-0.0299073 -0.0725316 0)
(-0.012633 -0.0572623 0)
(-0.00147886 -0.0244853 0)
(-0.00146137 0.0260827 0)
(-0.0107114 0.0573914 0)
(-0.0242636 0.0715906 0)
(-0.0381938 0.074141 0)
(-0.0513195 0.0699428 0)
(-0.0628684 0.0621085 0)
(-0.0727494 0.052383 0)
(-0.0809991 0.0415098 0)
(-0.0877167 0.0297728 0)
(-0.0929626 0.0171706 0)
(-0.0966996 0.0035715 0)
(-0.0987358 -0.0112335 0)
(-0.098667 -0.0274062 0)
(-0.0958139 -0.0448868 0)
(-0.0892456 -0.0629699 0)
(-0.0779541 -0.0797914 0)
(-0.0612545 -0.0914372 0)
(-0.0401876 -0.0918905 0)
(-0.0175474 -0.0737392 0)
(-0.00216438 -0.0319313 0)
(-0.00192481 0.0322144 0)
(-0.0133749 0.0698269 0)
(-0.02951 0.0862086 0)
(-0.0456352 0.0884027 0)
(-0.0603938 0.0827905 0)
(-0.0731149 0.0731806 0)
(-0.0838376 0.0617131 0)
(-0.0927841 0.0492262 0)
(-0.100198 0.0360095 0)
(-0.106283 0.0219764 0)
(-0.111108 0.00685107 0)
(-0.114545 -0.00979817 0)
(-0.116177 -0.0284305 0)
(-0.115147 -0.0493425 0)
(-0.110129 -0.0720944 0)
(-0.099337 -0.0947678 0)
(-0.0811081 -0.112409 0)
(-0.0555104 -0.116708 0)
(-0.0255285 -0.0960887 0)
(-0.00341561 -0.0426044 0)
(-0.00268292 0.0401645 0)
(-0.0171558 0.0850576 0)
(-0.0364126 0.103496 0)
(-0.054938 0.104673 0)
(-0.0711951 0.0970243 0)
(-0.0847891 0.0851616 0)
(-0.0959556 0.0716884 0)
(-0.105195 0.057516 0)
(-0.112945 0.0429238 0)
(-0.119606 0.0277141 0)
(-0.125416 0.0114337 0)
(-0.130387 -0.00663564 0)
(-0.134186 -0.0273749 0)
(-0.135865 -0.0516683 0)
(-0.133761 -0.0796945 0)
(-0.125141 -0.109924 0)
(-0.106964 -0.136535 0)
(-0.0772275 -0.148381 0)
(-0.0381946 -0.127048 0)
(-0.00569175 -0.0587264 0)
(-0.00393023 0.0503823 0)
(-0.0227033 0.103385 0)
(-0.0455847 0.123424 0)
(-0.066422 0.122572 0)
(-0.0835295 0.112075 0)
(-0.097147 0.0974073 0)
(-0.107803 0.0816729 0)
(-0.116401 0.0658038 0)
(-0.123611 0.0500435 0)
(-0.130078 0.0340636 0)
(-0.136246 0.0172204 0)
(-0.142339 -0.00152216 0)
(-0.148233 -0.0235607 0)
(-0.153071 -0.0506019 0)
(-0.155111 -0.0838978 0)
(-0.150784 -0.123052 0)
(-0.135647 -0.162092 0)
(-0.104336 -0.187105 0)
(-0.056741 -0.169442 0)
(-0.00963666 -0.0835855 0)
(-0.00612488 0.0651466 0)
(-0.030712 0.126636 0)
(-0.0570469 0.146848 0)
(-0.0791671 0.141978 0)
(-0.0953717 0.127253 0)
(-0.107133 0.108932 0)
(-0.115378 0.0905737 0)
(-0.121549 0.0729959 0)
(-0.126548 0.0563318 0)
(-0.131258 0.040088 0)
(-0.136312 0.0234308 0)
(-0.142156 0.00502608 0)
(-0.148978 -0.0170417 0)
(-0.15624 -0.0454223 0)
(-0.162639 -0.0828283 0)
(-0.164389 -0.130913 0)
(-0.156545 -0.184989 0)
(-0.129643 -0.229989 0)
(-0.0795593 -0.224543 0)
(-0.0159133 -0.12176 0)
(-0.0098954 0.08411 0)
(-0.0426106 0.152972 0)
(-0.0704367 0.170886 0)
(-0.0904713 0.159597 0)
(-0.101427 0.139358 0)
(-0.107276 0.116874 0)
(-0.109437 0.0958874 0)
(-0.110005 0.0769023 0)
(-0.110005 0.0598247 0)
(-0.110438 0.0439685 0)
(-0.111987 0.0283409 0)
(-0.115208 0.0114162 0)
(-0.120582 -0.00906838 0)
(-0.128058 -0.0365168 0)
(-0.13741 -0.0750824 0)
(-0.145704 -0.129091 0)
(-0.149629 -0.197071 0)
(-0.136383 -0.26677 0)
(-0.0984198 -0.286082 0)
(-0.0243516 -0.175659 0)
(-0.0160368 0.116529 0)
(-0.0562396 0.186316 0)
(-0.0780107 0.195258 0)
(-0.0876136 0.172408 0)
(-0.0852414 0.144455 0)
(-0.0786559 0.117294 0)
(-0.0694912 0.0939969 0)
(-0.0603284 0.0743023 0)
(-0.0520001 0.0576234 0)
(-0.0453618 0.0430004 0)
(-0.0408935 0.0292961 0)
(-0.0390403 0.0149494 0)
(-0.0404232 -0.00232648 0)
(-0.045442 -0.0261231 0)
(-0.0553732 -0.0613724 0)
(-0.0691029 -0.114736 0)
(-0.0877701 -0.189435 0)
(-0.0979378 -0.281655 0)
(-0.09402 -0.338131 0)
(-0.0317329 -0.244235 0)
(-0.0256551 0.148077 0)
(-0.0702307 0.208268 0)
(-0.0632595 0.20085 0)
(-0.0447229 0.165292 0)
(-0.015044 0.131507 0)
(0.0131438 0.10257 0)
(0.0396462 0.0796159 0)
(0.0623363 0.0614824 0)
(0.0813451 0.0469997 0)
(0.0965088 0.0350201 0)
(0.107916 0.0243789 0)
(0.115495 0.013718 0)
(0.118711 0.00114287 0)
(0.116875 -0.0162809 0)
(0.107381 -0.0430007 0)
(0.0892529 -0.0860555 0)
(0.0552817 -0.152707 0)
(0.0159114 -0.250989 0)
(-0.036347 -0.343177 0)
(-0.025112 -0.300369 0)
(-0.0173508 0.220405 0)
(-0.0165733 0.219169 0)
(0.0565909 0.177536 0)
(0.119818 0.128325 0)
(0.182463 0.0927305 0)
(0.232752 0.0673365 0)
(0.274311 0.0492149 0)
(0.307226 0.0362417 0)
(0.333228 0.0266857 0)
(0.353323 0.0193744 0)
(0.368354 0.013309 0)
(0.378731 0.00756004 0)
(0.384202 0.000919971 0)
(0.383963 -0.00828394 0)
(0.375064 -0.0230634 0)
(0.354774 -0.048322 0)
(0.311833 -0.0928569 0)
(0.248182 -0.173892 0)
(0.128979 -0.283543 0)
(0.0339203 -0.324289 0)
(0.21275 0.131746 0)
(0.302113 0.102972 0)
(0.457238 0.0678143 0)
(0.546719 0.0429504 0)
(0.615067 0.0265579 0)
(0.661994 0.0167588 0)
(0.695604 0.0106994 0)
(0.719665 0.00697618 0)
(0.7371 0.00460232 0)
(0.749711 0.00302214 0)
(0.758636 0.00185288 0)
(0.764426 0.000821521 0)
(0.767046 -0.000391455 0)
(0.765721 -0.00211423 0)
(0.758364 -0.00514128 0)
(0.741243 -0.0103528 0)
(0.704611 -0.0204078 0)
(0.638764 -0.0397994 0)
(0.486362 -0.0747107 0)
(0.285446 -0.136799 0)
)
;

boundaryField
{
    movingWall
    {
        type            fixedValue;
        value           uniform (1 0 0);
    }
    fixedWalls
    {
        type            noSlip;
    }
    frontAndBack
    {
        type            empty;
    }
}


// ************************************************************************* //
