/*--------------------------------*- C++ -*----------------------------------*\
| =========                 |                                                 |
| \\      /  F ield         | OpenFOAM: The Open Source CFD Toolbox           |
|  \\    /   O peration     | Version:  4.1                                   |
|   \\  /    A nd           | Web:      www.OpenFOAM.org                      |
|    \\/     M anipulation  |                                                 |
\*---------------------------------------------------------------------------*/
FoamFile
{
    version     2.0;
    format      ascii;
    class       volVectorField;
    location    "0.00315";
    object      U;
}
// * * * * * * * * * * * * * * * * * * * * * * * * * * * * * * * * * * * * * //

dimensions      [0 1 -1 0 0 0 0];

internalField   nonuniform List<vector> 
1681
(
(2.3134e-05 -1.53565e-05 0)
(-0.00092386 0.00059777 0)
(-0.00345357 0.00108222 0)
(-0.00694281 0.00137866 0)
(-0.0109561 0.00150785 0)
(-0.0151516 0.00154077 0)
(-0.0193488 0.00152112 0)
(-0.023447 0.00147371 0)
(-0.0273896 0.00140952 0)
(-0.0311385 0.00133346 0)
(-0.0346649 0.0012478 0)
(-0.0379445 0.00115382 0)
(-0.0409558 0.00105242 0)
(-0.0436797 0.000944337 0)
(-0.0460991 0.000830235 0)
(-0.0481987 0.000710765 0)
(-0.049965 0.00058658 0)
(-0.0513863 0.000458349 0)
(-0.0524528 0.000326768 0)
(-0.0531566 0.000192567 0)
(-0.0534918 5.65088e-05 0)
(-0.0534549 -8.06058e-05 0)
(-0.0530441 -0.000217939 0)
(-0.0522605 -0.000354619 0)
(-0.051107 -0.000489739 0)
(-0.0495895 -0.000622369 0)
(-0.0477159 -0.000751557 0)
(-0.0454973 -0.000876341 0)
(-0.0429467 -0.000995769 0)
(-0.0400802 -0.00110891 0)
(-0.0369161 -0.0012149 0)
(-0.033475 -0.00131295 0)
(-0.02978 -0.00140233 0)
(-0.0258561 -0.00148211 0)
(-0.0217327 -0.00155 0)
(-0.0174492 -0.00159903 0)
(-0.0130755 -0.00160937 0)
(-0.00875234 -0.00153598 0)
(-0.00478157 -0.00129488 0)
(-0.00165004 -0.000806269 0)
(-0.000127123 -0.00011707 0)
(-0.000380824 0.000811369 0)
(-0.00339356 0.00406422 0)
(-0.00964613 0.00667875 0)
(-0.0178369 0.00828121 0)
(-0.0270953 0.00901268 0)
(-0.0367167 0.0092042 0)
(-0.0463208 0.00909216 0)
(-0.0556886 0.00881196 0)
(-0.0646939 0.00842845 0)
(-0.0732511 0.00797173 0)
(-0.0812946 0.00745647 0)
(-0.0887695 0.00689108 0)
(-0.0956276 0.00628137 0)
(-0.101826 0.005632 0)
(-0.107327 0.00494716 0)
(-0.112095 0.00423084 0)
(-0.116102 0.003487 0)
(-0.11932 0.0027197 0)
(-0.121729 0.0019331 0)
(-0.123312 0.00113156 0)
(-0.124056 0.000319609 0)
(-0.123952 -0.000498026 0)
(-0.122999 -0.00131641 0)
(-0.121199 -0.00213042 0)
(-0.118558 -0.00293476 0)
(-0.115091 -0.00372399 0)
(-0.110817 -0.00449253 0)
(-0.105758 -0.00523479 0)
(-0.099947 -0.00594516 0)
(-0.0934182 -0.00661815 0)
(-0.0862136 -0.00724848 0)
(-0.0783803 -0.0078311 0)
(-0.0699708 -0.00836089 0)
(-0.0610441 -0.00883076 0)
(-0.0516695 -0.00922513 0)
(-0.0419397 -0.00950206 0)
(-0.0320079 -0.00955369 0)
(-0.0221617 -0.00914582 0)
(-0.0129792 -0.00787738 0)
(-0.00537487 -0.00532981 0)
(-0.000818646 -0.00161922 0)
(-0.00051831 0.00263166 0)
(-0.00464979 0.00995253 0)
(-0.0133128 0.0155828 0)
(-0.0244582 0.0189929 0)
(-0.0369352 0.0205386 0)
(-0.0498055 0.0209166 0)
(-0.0625913 0.0206334 0)
(-0.0750223 0.0199801 0)
(-0.0869471 0.0190982 0)
(-0.0982623 0.0180536 0)
(-0.108888 0.0168787 0)
(-0.118755 0.015592 0)
(-0.127803 0.0142063 0)
(-0.135976 0.0127321 0)
(-0.143226 0.0111786 0)
(-0.149509 0.0095548 0)
(-0.154785 0.00786972 0)
(-0.159021 0.00613243 0)
(-0.16219 0.00435232 0)
(-0.164268 0.00253916 0)
(-0.16524 0.000703104 0)
(-0.165096 -0.00114523 0)
(-0.163833 -0.00299482 0)
(-0.161452 -0.0048342 0)
(-0.157965 -0.00665154 0)
(-0.153388 -0.00843467 0)
(-0.147747 -0.0101712 0)
(-0.141072 -0.0118485 0)
(-0.133404 -0.0134541 0)
(-0.124789 -0.0149755 0)
(-0.115282 -0.0164007 0)
(-0.104945 -0.0177177 0)
(-0.0938472 -0.018914 0)
(-0.0820667 -0.0199719 0)
(-0.069696 -0.0208554 0)
(-0.0568563 -0.021474 0)
(-0.0437409 -0.0216059 0)
(-0.030699 -0.0207808 0)
(-0.0184186 -0.0181977 0)
(-0.0079986 -0.0129341 0)
(-0.00131571 -0.0047407 0)
(-0.000246569 0.00430386 0)
(-0.00434821 0.0169777 0)
(-0.0145536 0.0263943 0)
(-0.0275928 0.0319454 0)
(-0.0420728 0.0343688 0)
(-0.0568631 0.0348755 0)
(-0.0714545 0.0343195 0)
(-0.0855733 0.0331786 0)
(-0.0990756 0.0316796 0)
(-0.111863 0.0299248 0)
(-0.123856 0.0279629 0)
(-0.134985 0.0258213 0)
(-0.145184 0.0235194 0)
(-0.154396 0.0210732 0)
(-0.162564 0.0184977 0)
(-0.169642 0.0158072 0)
(-0.175586 0.0130162 0)
(-0.180359 0.0101396 0)
(-0.18393 0.00719275 0)
(-0.186273 0.00419172 0)
(-0.187371 0.00115315 0)
(-0.187212 -0.00190558 0)
(-0.185792 -0.00496635 0)
(-0.183113 -0.00801037 0)
(-0.179187 -0.0110182 0)
(-0.174032 -0.0139698 0)
(-0.167676 -0.0168449 0)
(-0.160153 -0.0196226 0)
(-0.151508 -0.0222823 0)
(-0.141793 -0.0248033 0)
(-0.131069 -0.0271654 0)
(-0.119405 -0.0293484 0)
(-0.10688 -0.0313306 0)
(-0.0935806 -0.0330821 0)
(-0.0796119 -0.0345437 0)
(-0.0651075 -0.0355727 0)
(-0.0502771 -0.0358261 0)
(-0.0354928 -0.0345794 0)
(-0.0214913 -0.0305829 0)
(-0.00947448 -0.0222813 0)
(-0.00158684 -0.00876381 0)
(0.000208185 0.00573773 0)
(-0.00272013 0.024853 0)
(-0.014367 0.0387276 0)
(-0.02883 0.0465302 0)
(-0.0446956 0.0497411 0)
(-0.0607029 0.0502344 0)
(-0.076373 0.0492743 0)
(-0.091459 0.0475364 0)
(-0.105842 0.0453283 0)
(-0.119437 0.0427813 0)
(-0.132174 0.0399548 0)
(-0.143985 0.0368817 0)
(-0.154806 0.0335859 0)
(-0.164576 0.030088 0)
(-0.173242 0.026408 0)
(-0.180752 0.0225656 0)
(-0.18706 0.0185809 0)
(-0.192129 0.0144749 0)
(-0.195925 0.010269 0)
(-0.198422 0.00598588 0)
(-0.199599 0.00164904 0)
(-0.199444 -0.00271696 0)
(-0.197952 -0.00708648 0)
(-0.195125 -0.0114329 0)
(-0.190974 -0.0157287 0)
(-0.185516 -0.0199454 0)
(-0.178781 -0.024054 0)
(-0.170805 -0.028025 0)
(-0.161632 -0.0318286 0)
(-0.151318 -0.0354354 0)
(-0.139926 -0.0388159 0)
(-0.12753 -0.041941 0)
(-0.114212 -0.044779 0)
(-0.100065 -0.0472868 0)
(-0.0851993 -0.0493814 0)
(-0.0697546 -0.0508668 0)
(-0.053948 -0.0512756 0)
(-0.0381646 -0.0496171 0)
(-0.0231738 -0.0441555 0)
(-0.0102507 -0.0326142 0)
(-0.00171812 -0.0132699 0)
(5.55149e-268 5.20464e-05 0)
(-0.00239865 0.0321351 0)
(-0.0147773 0.0519819 0)
(-0.0300449 0.0622071 0)
(-0.0467304 0.0661185 0)
(-0.0634884 0.0664717 0)
(-0.0798411 0.0650013 0)
(-0.0955496 0.0625846 0)
(-0.110504 0.0596035 0)
(-0.124627 0.0562111 0)
(-0.13785 0.0524724 0)
(-0.150109 0.0484225 0)
(-0.161338 0.0440882 0)
(-0.171479 0.0394937 0)
(-0.180475 0.0346633 0)
(-0.188274 0.0296219 0)
(-0.194831 0.0243952 0)
(-0.200105 0.0190097 0)
(-0.204062 0.0134934 0)
(-0.206674 0.00787527 0)
(-0.207919 0.0021859 0)
(-0.207783 -0.0035429 0)
(-0.20626 -0.00927786 0)
(-0.20335 -0.0149843 0)
(-0.199064 -0.0206264 0)
(-0.193419 -0.0261668 0)
(-0.186442 -0.0315676 0)
(-0.178169 -0.03679 0)
(-0.168647 -0.0417949 0)
(-0.157929 -0.046543 0)
(-0.146083 -0.0509955 0)
(-0.133183 -0.0551134 0)
(-0.119314 -0.0588544 0)
(-0.104573 -0.0621617 0)
(-0.0890725 -0.0649283 0)
(-0.0729583 -0.0669035 0)
(-0.0564543 -0.0674921 0)
(-0.0399584 -0.0654258 0)
(-0.0242719 -0.0584533 0)
(-0.0107331 -0.0435218 0)
(-0.00179427 -0.0180315 0)
(5.44742e-27 3.87513e-25 0)
(-0.00386562 0.0405894 0)
(-0.0163932 0.0657883 0)
(-0.0320462 0.0784253 0)
(-0.049144 0.0830522 0)
(-0.0663679 0.0832583 0)
(-0.0832031 0.0812561 0)
(-0.0993937 0.0781331 0)
(-0.114816 0.0743488 0)
(-0.129384 0.0700798 0)
(-0.143025 0.0653972 0)
(-0.155672 0.0603387 0)
(-0.16726 0.0549334 0)
(-0.177728 0.0492092 0)
(-0.187019 0.0431947 0)
(-0.195079 0.0369195 0)
(-0.201863 0.0304146 0)
(-0.207328 0.0237124 0)
(-0.211438 0.0168468 0)
(-0.214165 0.00985343 0)
(-0.215483 0.00276962 0)
(-0.215379 -0.00436553 0)
(-0.213843 -0.0115111 0)
(-0.210875 -0.0186243 0)
(-0.206482 -0.0256606 0)
(-0.200681 -0.032574 0)
(-0.193497 -0.0393172 0)
(-0.184966 -0.0458415 0)
(-0.175133 -0.052098 0)
(-0.164053 -0.0580373 0)
(-0.151793 -0.0636104 0)
(-0.138429 -0.0687677 0)
(-0.124048 -0.0734557 0)
(-0.108751 -0.0776033 0)
(-0.0926534 -0.0810783 0)
(-0.0759067 -0.0835737 0)
(-0.0587435 -0.0843612 0)
(-0.0415784 -0.0818826 0)
(-0.025248 -0.0733453 0)
(-0.0111529 -0.0548816 0)
(-0.00185958 -0.0229818 0)
(-3.889e-79 1.36185e-27 0)
(-0.0054694 0.0494824 0)
(-0.0185656 0.0799194 0)
(-0.0346558 0.0949639 0)
(-0.0520986 0.100347 0)
(-0.0697221 0.100455 0)
(-0.0870009 0.0979517 0)
(-0.10366 0.0941312 0)
(-0.119552 0.089536 0)
(-0.134578 0.0843722 0)
(-0.148655 0.0787216 0)
(-0.161711 0.072627 0)
(-0.173678 0.0661215 0)
(-0.184495 0.059237 0)
(-0.194101 0.0520065 0)
(-0.202443 0.0444643 0)
(-0.209474 0.0366467 0)
(-0.215148 0.0285917 0)
(-0.21943 0.0203392 0)
(-0.222287 0.011931 0)
(-0.223694 0.00341129 0)
(-0.223634 -0.00517376 0)
(-0.222094 -0.0137755 0)
(-0.219073 -0.0223432 0)
(-0.214576 -0.0308236 0)
(-0.208616 -0.0391616 0)
(-0.201218 -0.0473001 0)
(-0.192415 -0.0551805 0)
(-0.182251 -0.0627433 0)
(-0.170782 -0.0699284 0)
(-0.158074 -0.0766756 0)
(-0.144204 -0.0829241 0)
(-0.129263 -0.0886084 0)
(-0.113353 -0.0936419 0)
(-0.0965956 -0.0978657 0)
(-0.0791489 -0.100914 0)
(-0.0612563 -0.101918 0)
(-0.043353 -0.0990174 0)
(-0.0263165 -0.0888518 0)
(-0.0116148 -0.0667038 0)
(-0.00193311 -0.0281239 0)
(-2.94536e-166 -9.72249e-80 0)
(-0.00794877 0.0593221 0)
(-0.0213604 0.0946649 0)
(-0.0377822 0.111896 0)
(-0.055546 0.118018 0)
(-0.0736101 0.118078 0)
(-0.0913937 0.115115 0)
(-0.108586 0.110615 0)
(-0.12501 0.105206 0)
(-0.14055 0.0991308 0)
(-0.155117 0.092488 0)
(-0.168634 0.085329 0)
(-0.181029 0.0776923 0)
(-0.192239 0.0696147 0)
(-0.202204 0.0611338 0)
(-0.210868 0.0522889 0)
(-0.218181 0.0431212 0)
(-0.224097 0.0336741 0)
(-0.228578 0.0239933 0)
(-0.23159 0.0141269 0)
(-0.233104 0.00412536 0)
(-0.233101 -0.00595801 0)
(-0.231566 -0.0160672 0)
(-0.228494 -0.0261431 0)
(-0.223886 -0.0361241 0)
(-0.217754 -0.0459456 0)
(-0.210119 -0.0555405 0)
(-0.201012 -0.0648397 0)
(-0.190477 -0.0737725 0)
(-0.178566 -0.0822673 0)
(-0.165347 -0.0902518 0)
(-0.150898 -0.0976531 0)
(-0.135312 -0.104392 0)
(-0.118696 -0.110366 0)
(-0.101176 -0.115386 0)
(-0.0829179 -0.119025 0)
(-0.0641798 -0.120267 0)
(-0.0454207 -0.116931 0)
(-0.0275657 -0.105063 0)
(-0.0121595 -0.0790579 0)
(-0.00202156 -0.0334908 0)
(-4.85168e-267 0.000280515 0)
(-0.0119715 0.0694022 0)
(-0.0244469 0.10924 0)
(-0.0410137 0.128945 0)
(-0.0592185 0.136049 0)
(-0.0779212 0.136205 0)
(-0.0963807 0.132843 0)
(-0.114236 0.127673 0)
(-0.131292 0.121436 0)
(-0.147429 0.114424 0)
(-0.162557 0.106759 0)
(-0.176597 0.0985023 0)
(-0.18948 0.0896996 0)
(-0.201139 0.0803924 0)
(-0.211512 0.070623 0)
(-0.220544 0.0604353 0)
(-0.228181 0.0498757 0)
(-0.234377 0.0389927 0)
(-0.23909 0.0278375 0)
(-0.242284 0.0164641 0)
(-0.243928 0.00492914 0)
(-0.243998 -0.00670727 0)
(-0.242477 -0.0183818 0)
(-0.239355 -0.0300275 0)
(-0.234631 -0.0415739 0)
(-0.228312 -0.052947 0)
(-0.220415 -0.0640694 0)
(-0.210969 -0.0748608 0)
(-0.200014 -0.0852387 0)
(-0.187602 -0.0951188 0)
(-0.1738 -0.104416 0)
(-0.158688 -0.113044 0)
(-0.142359 -0.120908 0)
(-0.124926 -0.127887 0)
(-0.106522 -0.133761 0)
(-0.0873221 -0.138036 0)
(-0.0676002 -0.13954 0)
(-0.0478443 -0.135754 0)
(-0.0290344 -0.1221 0)
(-0.0128038 -0.092038 0)
(-0.00212731 -0.0391257 0)
(-0.00112206 0.0205477 0)
(-0.0107374 0.0822599 0)
(-0.0246234 0.124311 0)
(-0.0427606 0.146677 0)
(-0.0625026 0.154915 0)
(-0.0824508 0.155174 0)
(-0.101927 0.151354 0)
(-0.12064 0.145451 0)
(-0.138452 0.13833 0)
(-0.155276 0.130335 0)
(-0.17104 0.121606 0)
(-0.185672 0.112211 0)
(-0.199104 0.102203 0)
(-0.21127 0.0916248 0)
(-0.222106 0.0805243 0)
(-0.231555 0.0689496 0)
(-0.239562 0.0569517 0)
(-0.246078 0.0445842 0)
(-0.251059 0.0319035 0)
(-0.254466 0.0189689 0)
(-0.256265 0.00584309 0)
(-0.256428 -0.00740756 0)
(-0.254934 -0.0207127 0)
(-0.251768 -0.0339977 0)
(-0.246925 -0.0471834 0)
(-0.240406 -0.0601861 0)
(-0.232224 -0.0729179 0)
(-0.222404 -0.0852867 0)
(-0.210982 -0.0971972 0)
(-0.198008 -0.108552 0)
(-0.183548 -0.11925 0)
(-0.167682 -0.129192 0)
(-0.150507 -0.138265 0)
(-0.132139 -0.146327 0)
(-0.112718 -0.153125 0)
(-0.0924322 -0.158091 0)
(-0.0715737 -0.159887 0)
(-0.050664 -0.155637 0)
(-0.0307468 -0.140099 0)
(-0.0135576 -0.105751 0)
(-0.00225176 -0.0450768 0)
(0.000612203 0.0230202 0)
(-0.0027448 0.0942183 0)
(-0.0219091 0.14227 0)
(-0.0435514 0.167082 0)
(-0.0658825 0.175777 0)
(-0.0875355 0.175577 0)
(-0.108241 0.170953 0)
(-0.127924 0.164117 0)
(-0.146571 0.155997 0)
(-0.164153 0.146946 0)
(-0.180619 0.137099 0)
(-0.195908 0.126521 0)
(-0.209951 0.115262 0)
(-0.222683 0.103368 0)
(-0.234037 0.0908902 0)
(-0.243954 0.07788 0)
(-0.252378 0.0643932 0)
(-0.259258 0.0504881 0)
(-0.264545 0.036226 0)
(-0.268199 0.021671 0)
(-0.270183 0.00689132 0)
(-0.270462 -0.00804097 0)
(-0.269013 -0.023049 0)
(-0.265813 -0.0380507 0)
(-0.260852 -0.0529586 0)
(-0.254126 -0.0676793 0)
(-0.24564 -0.0821139 0)
(-0.235415 -0.096158 0)
(-0.223482 -0.109703 0)
(-0.209887 -0.122635 0)
(-0.194693 -0.13484 0)
(-0.177981 -0.146198 0)
(-0.15985 -0.15658 0)
(-0.140421 -0.165818 0)
(-0.119842 -0.173623 0)
(-0.0983152 -0.179347 0)
(-0.0761538 -0.181472 0)
(-0.0539182 -0.176742 0)
(-0.0327259 -0.159212 0)
(-0.0144309 -0.120314 0)
(-0.00239638 -0.0513964 0)
(4.49143e-282 0.000153051 0)
(-0.00311302 0.104723 0)
(-0.0246252 0.163372 0)
(-0.0479967 0.190206 0)
(-0.0715949 0.198557 0)
(-0.0942385 0.197334 0)
(-0.115813 0.191596 0)
(-0.13632 0.183669 0)
(-0.155768 0.174467 0)
(-0.174129 0.164306 0)
(-0.191347 0.153297 0)
(-0.20735 0.141492 0)
(-0.222066 0.128937 0)
(-0.235422 0.11568 0)
(-0.247351 0.101774 0)
(-0.257789 0.087276 0)
(-0.266679 0.0722458 0)
(-0.273966 0.0567461 0)
(-0.279601 0.0408425 0)
(-0.28354 0.0246037 0)
(-0.285741 0.0081022 0)
(-0.286167 -0.00858469 0)
(-0.284785 -0.0253744 0)
(-0.281568 -0.042178 0)
(-0.276498 -0.0589 0)
(-0.269563 -0.0754375 0)
(-0.260762 -0.0916804 0)
(-0.250106 -0.107511 0)
(-0.237621 -0.122807 0)
(-0.223348 -0.137438 0)
(-0.207346 -0.151271 0)
(-0.189694 -0.164167 0)
(-0.170494 -0.175974 0)
(-0.149871 -0.1865 0)
(-0.127984 -0.195411 0)
(-0.105047 -0.201972 0)
(-0.0814012 -0.204475 0)
(-0.057651 -0.199251 0)
(-0.0349989 -0.179605 0)
(-0.0154353 -0.135856 0)
(-0.00256308 -0.0581418 0)
(-6.14806e-248 2.11732e-165 0)
(-0.013916 0.120153 0)
(-0.0342449 0.185595 0)
(-0.057034 0.213743 0)
(-0.0800823 0.221726 0)
(-0.102749 0.219612 0)
(-0.124717 0.21289 0)
(-0.145859 0.203955 0)
(-0.166065 0.193708 0)
(-0.185231 0.182442 0)
(-0.203254 0.17025 0)
(-0.220037 0.157184 0)
(-0.23549 0.143289 0)
(-0.249534 0.128618 0)
(-0.262094 0.113231 0)
(-0.273107 0.0971888 0)
(-0.282512 0.0805569 0)
(-0.290253 0.0634022 0)
(-0.296281 0.0457938 0)
(-0.300546 0.0278041 0)
(-0.303003 0.00950902 0)
(-0.303608 -0.00901014 0)
(-0.302324 -0.027666 0)
(-0.299115 -0.0463639 0)
(-0.293953 -0.0650007 0)
(-0.286816 -0.0834645 0)
(-0.277695 -0.101634 0)
(-0.266591 -0.119378 0)
(-0.25352 -0.136558 0)
(-0.238516 -0.153025 0)
(-0.221633 -0.168628 0)
(-0.202948 -0.183204 0)
(-0.182562 -0.196577 0)
(-0.160606 -0.208522 0)
(-0.137247 -0.218658 0)
(-0.112718 -0.226154 0)
(-0.0873889 -0.229091 0)
(-0.0619153 -0.223362 0)
(-0.0375985 -0.201463 0)
(-0.0165857 -0.15252 0)
(-0.00275428 -0.0653759 0)
(-8.46928e-165 0.00191885 0)
(-0.0296456 0.136476 0)
(-0.046866 0.205861 0)
(-0.068032 0.235683 0)
(-0.0898564 0.244088 0)
(-0.11226 0.24181 0)
(-0.134543 0.234577 0)
(-0.156349 0.224901 0)
(-0.177385 0.213736 0)
(-0.197443 0.201406 0)
(-0.216359 0.188027 0)
(-0.234002 0.173665 0)
(-0.250266 0.158383 0)
(-0.265062 0.142244 0)
(-0.278315 0.125317 0)
(-0.289956 0.107671 0)
(-0.299927 0.0893755 0)
(-0.308172 0.0705026 0)
(-0.314638 0.0511239 0)
(-0.319274 0.0313139 0)
(-0.32203 0.0111507 0)
(-0.322857 -0.0092819 0)
(-0.321709 -0.0298933 0)
(-0.318541 -0.050584 0)
(-0.313313 -0.0712447 0)
(-0.305993 -0.0917547 0)
(-0.296559 -0.111981 0)
(-0.284998 -0.13178 0)
(-0.271315 -0.150995 0)
(-0.255536 -0.169459 0)
(-0.237704 -0.186996 0)
(-0.217892 -0.203418 0)
(-0.1962 -0.218521 0)
(-0.172762 -0.232042 0)
(-0.147758 -0.243546 0)
(-0.121438 -0.252095 0)
(-0.0942049 -0.25554 0)
(-0.066776 -0.249297 0)
(-0.0405651 -0.224991 0)
(-0.0179 -0.170465 0)
(-0.00297301 -0.0731694 0)
(-0.00767541 0.0534344 0)
(-0.0367552 0.160704 0)
(-0.0547957 0.225782 0)
(-0.0761466 0.256635 0)
(-0.0983828 0.266048 0)
(-0.121474 0.264222 0)
(-0.144665 0.256884 0)
(-0.167502 0.246687 0)
(-0.189615 0.234698 0)
(-0.21074 0.22132 0)
(-0.230679 0.206726 0)
(-0.249285 0.191021 0)
(-0.266443 0.174292 0)
(-0.282061 0.156621 0)
(-0.296064 0.138089 0)
(-0.308389 0.118774 0)
(-0.318976 0.0987513 0)
(-0.327773 0.0780955 0)
(-0.334726 0.0568799 0)
(-0.339782 0.0351795 0)
(-0.342887 0.0130726 0)
(-0.343985 -0.00935652 0)
(-0.34302 -0.032016 0)
(-0.339938 -0.0548034 0)
(-0.334684 -0.0776044 0)
(-0.327212 -0.100291 0)
(-0.317483 -0.122719 0)
(-0.30547 -0.144731 0)
(-0.291163 -0.166153 0)
(-0.274571 -0.186795 0)
(-0.255728 -0.206456 0)
(-0.234698 -0.224919 0)
(-0.211578 -0.241945 0)
(-0.186505 -0.257231 0)
(-0.159667 -0.270273 0)
(-0.131337 -0.280018 0)
(-0.101957 -0.284064 0)
(-0.0723121 -0.277303 0)
(-0.0439481 -0.250422 0)
(-0.0194005 -0.189872 0)
(-0.00322303 -0.0816019 0)
(-0.00717334 0.068895 0)
(-0.0318175 0.180824 0)
(-0.055012 0.247334 0)
(-0.0797439 0.279383 0)
(-0.104706 0.289566 0)
(-0.129888 0.28803 0)
(-0.154838 0.280507 0)
(-0.179225 0.269733 0)
(-0.202743 0.256858 0)
(-0.225152 0.242364 0)
(-0.246266 0.226479 0)
(-0.265946 0.20935 0)
(-0.284081 0.191094 0)
(-0.300589 0.171814 0)
(-0.315401 0.151603 0)
(-0.328458 0.13055 0)
(-0.339711 0.108733 0)
(-0.349107 0.0862295 0)
(-0.356597 0.0631115 0)
(-0.362126 0.0394521 0)
(-0.365636 0.0153273 0)
(-0.367063 -0.00918128 0)
(-0.366341 -0.0339827 0)
(-0.363401 -0.0589742 0)
(-0.358176 -0.0840383 0)
(-0.350599 -0.109041 0)
(-0.340612 -0.133829 0)
(-0.328169 -0.158229 0)
(-0.313238 -0.18205 0)
(-0.295811 -0.205078 0)
(-0.275905 -0.227084 0)
(-0.253572 -0.247816 0)
(-0.228901 -0.266995 0)
(-0.20203 -0.284267 0)
(-0.173157 -0.299057 0)
(-0.142577 -0.310174 0)
(-0.110776 -0.314934 0)
(-0.078621 -0.307663 0)
(-0.0478086 -0.278018 0)
(-0.0211152 -0.210947 0)
(-0.00350901 -0.0907648 0)
(-0.00568178 0.0845531 0)
(-0.028208 0.204052 0)
(-0.0543826 0.27308 0)
(-0.0823579 0.305722 0)
(-0.110443 0.315948 0)
(-0.138255 0.314131 0)
(-0.16543 0.306042 0)
(-0.191725 0.29443 0)
(-0.216909 0.280482 0)
(-0.240791 0.264719 0)
(-0.263219 0.247415 0)
(-0.284073 0.228748 0)
(-0.303262 0.208863 0)
(-0.320718 0.187881 0)
(-0.336386 0.165911 0)
(-0.35022 0.143045 0)
(-0.36218 0.119368 0)
(-0.372222 0.0949534 0)
(-0.3803 0.069871 0)
(-0.386358 0.0441883 0)
(-0.390335 0.0179751 0)
(-0.392159 -0.00869265 0)
(-0.391752 -0.0357287 0)
(-0.38903 -0.0630329 0)
(-0.383905 -0.0904875 0)
(-0.37629 -0.117954 0)
(-0.366103 -0.145272 0)
(-0.353272 -0.172255 0)
(-0.33774 -0.198691 0)
(-0.319472 -0.224342 0)
(-0.298465 -0.248945 0)
(-0.274752 -0.272213 0)
(-0.24841 -0.293817 0)
(-0.219573 -0.313345 0)
(-0.188448 -0.330133 0)
(-0.155353 -0.342837 0)
(-0.120824 -0.34846 0)
(-0.0858236 -0.340698 0)
(-0.0522231 -0.308085 0)
(-0.0230784 -0.233928 0)
(-0.00383681 -0.100763 0)
(-0.0048699 0.0971293 0)
(-0.0262779 0.227693 0)
(-0.054559 0.301246 0)
(-0.0854246 0.335098 0)
(-0.116601 0.345237 0)
(-0.147219 0.342784 0)
(-0.176856 0.333772 0)
(-0.205282 0.321024 0)
(-0.232319 0.305761 0)
(-0.257822 0.288533 0)
(-0.281672 0.269641 0)
(-0.30378 0.249294 0)
(-0.32408 0.227658 0)
(-0.342527 0.204871 0)
(-0.359085 0.181052 0)
(-0.373729 0.156299 0)
(-0.386431 0.130697 0)
(-0.397159 0.104314 0)
(-0.405873 0.0772122 0)
(-0.412521 0.0494498 0)
(-0.417035 0.0210856 0)
(-0.419336 -0.00781463 0)
(-0.419332 -0.0371736 0)
(-0.416919 -0.0668976 0)
(-0.411989 -0.0968721 0)
(-0.404428 -0.126958 0)
(-0.394125 -0.156989 0)
(-0.380975 -0.186765 0)
(-0.364889 -0.216057 0)
(-0.3458 -0.244599 0)
(-0.323675 -0.272094 0)
(-0.298519 -0.298208 0)
(-0.270393 -0.32256 0)
(-0.239419 -0.344666 0)
(-0.205809 -0.36376 0)
(-0.169906 -0.378318 0)
(-0.132304 -0.384992 0)
(-0.094071 -0.376777 0)
(-0.0572872 -0.340974 0)
(-0.0253341 -0.259091 0)
(-0.00421381 -0.111721 0)
(-0.0045711 0.109106 0)
(-0.0259891 0.252389 0)
(-0.0561798 0.331753 0)
(-0.0897269 0.367375 0)
(-0.123868 0.377431 0)
(-0.157315 0.374099 0)
(-0.189514 0.363854 0)
(-0.220202 0.349673 0)
(-0.249215 0.332831 0)
(-0.276438 0.313911 0)
(-0.301785 0.293238 0)
(-0.325199 0.271046 0)
(-0.346644 0.247519 0)
(-0.366102 0.222812 0)
(-0.383566 0.197052 0)
(-0.399034 0.170339 0)
(-0.412501 0.142752 0)
(-0.423949 0.114353 0)
(-0.433348 0.0851897 0)
(-0.440647 0.0553038 0)
(-0.445777 0.0247383 0)
(-0.448648 -0.00645685 0)
(-0.449152 -0.0382185 0)
(-0.447165 -0.0704641 0)
(-0.44255 -0.103087 0)
(-0.435163 -0.135952 0)
(-0.424858 -0.168888 0)
(-0.411492 -0.201687 0)
(-0.394933 -0.234102 0)
(-0.375075 -0.265838 0)
(-0.351842 -0.296561 0)
(-0.325204 -0.325887 0)
(-0.295191 -0.35337 0)
(-0.261911 -0.378443 0)
(-0.22557 -0.40022 0)
(-0.186537 -0.416966 0)
(-0.145466 -0.424931 0)
(-0.103554 -0.416333 0)
(-0.063123 -0.377101 0)
(-0.0279378 -0.286764 0)
(-0.00464943 -0.123783 0)
(-0.00461128 0.121062 0)
(-0.0268478 0.278352 0)
(-0.0591549 0.364517 0)
(-0.0954401 0.402425 0)
(-0.132555 0.41248 0)
(-0.168883 0.408108 0)
(-0.203728 0.39637 0)
(-0.236771 0.380473 0)
(-0.267846 0.361782 0)
(-0.296855 0.340923 0)
(-0.323742 0.318253 0)
(-0.348481 0.29403 0)
(-0.371072 0.26846 0)
(-0.391533 0.241711 0)
(-0.409893 0.213916 0)
(-0.426181 0.185175 0)
(-0.440418 0.155557 0)
(-0.452609 0.125109 0)
(-0.462736 0.093858 0)
(-0.470753 0.0618233 0)
(-0.476587 0.029024 0)
(-0.480136 -0.00451238 0)
(-0.481274 -0.038743 0)
(-0.479852 -0.0736026 0)
(-0.475703 -0.108998 0)
(-0.468646 -0.1448 0)
(-0.458494 -0.180843 0)
(-0.445055 -0.216911 0)
(-0.428148 -0.252741 0)
(-0.407613 -0.288013 0)
(-0.383321 -0.322349 0)
(-0.355192 -0.355312 0)
(-0.323215 -0.386382 0)
(-0.287465 -0.414894 0)
(-0.248138 -0.439817 0)
(-0.20562 -0.459171 0)
(-0.160632 -0.468744 0)
(-0.114519 -0.459871 0)
(-0.0698879 -0.416958 0)
(-0.030962 -0.31734 0)
(-0.0051559 -0.137124 0)
(-0.00485536 0.133565 0)
(-0.028527 0.306054 0)
(-0.0633312 0.399805 0)
(-0.102603 0.440375 0)
(-0.14285 0.45047 0)
(-0.182188 0.444898 0)
(-0.21979 0.431409 0)
(-0.255279 0.413503 0)
(-0.288481 0.392672 0)
(-0.319311 0.369604 0)
(-0.347743 0.344698 0)
(-0.373789 0.318241 0)
(-0.397492 0.290462 0)
(-0.418913 0.261543 0)
(-0.438126 0.231623 0)
(-0.455199 0.200796 0)
(-0.470192 0.169118 0)
(-0.483135 0.13661 0)
(-0.494029 0.103271 0)
(-0.502833 0.0690874 0)
(-0.509469 0.0340465 0)
(-0.513822 -0.00185529 0)
(-0.515743 -0.0386022 0)
(-0.515056 -0.0761527 0)
(-0.511559 -0.114433 0)
(-0.505029 -0.153329 0)
(-0.495229 -0.192683 0)
(-0.481912 -0.23228 0)
(-0.464835 -0.271844 0)
(-0.443769 -0.31103 0)
(-0.418518 -0.34942 0)
(-0.388937 -0.386515 0)
(-0.354951 -0.421714 0)
(-0.316588 -0.454236 0)
(-0.274016 -0.482879 0)
(-0.227628 -0.505374 0)
(-0.178212 -0.516969 0)
(-0.127282 -0.507995 0)
(-0.0777887 -0.461139 0)
(-0.0345021 -0.351294 0)
(-0.00574934 -0.151959 0)
(-0.00524044 0.146959 0)
(-0.0308524 0.335936 0)
(-0.0686239 0.43798 0)
(-0.111268 0.481487 0)
(-0.154933 0.491592 0)
(-0.197492 0.484614 0)
(-0.238001 0.469077 0)
(-0.276034 0.448835 0)
(-0.311409 0.425539 0)
(-0.344064 0.39996 0)
(-0.37401 0.372549 0)
(-0.401303 0.343633 0)
(-0.426038 0.313465 0)
(-0.448332 0.282246 0)
(-0.468311 0.250117 0)
(-0.486102 0.217164 0)
(-0.501807 0.18342 0)
(-0.515496 0.148873 0)
(-0.527188 0.11348 0)
(-0.536852 0.0771826 0)
(-0.544401 0.0399243 0)
(-0.549704 0.00166221 0)
(-0.552585 -0.0376229 0)
(-0.552836 -0.0779198 0)
(-0.550216 -0.119181 0)
(-0.544456 -0.161317 0)
(-0.535263 -0.204185 0)
(-0.522324 -0.247578 0)
(-0.505319 -0.291217 0)
(-0.483939 -0.334735 0)
(-0.457899 -0.377676 0)
(-0.426965 -0.419476 0)
(-0.390981 -0.459446 0)
(-0.349899 -0.496672 0)
(-0.303834 -0.529749 0)
(-0.253163 -0.556065 0)
(-0.198741 -0.570234 0)
(-0.142267 -0.561425 0)
(-0.0871022 -0.51037 0)
(-0.0386867 -0.389214 0)
(-0.00645149 -0.16855 0)
(-0.00574317 0.161534 0)
(-0.0337763 0.368468 0)
(-0.0750643 0.47951 0)
(-0.121577 0.526145 0)
(-0.169052 0.536136 0)
(-0.215116 0.527459 0)
(-0.258716 0.509506 0)
(-0.29939 0.486536 0)
(-0.336963 0.460394 0)
(-0.37141 0.431956 0)
(-0.40279 0.401739 0)
(-0.431218 0.370112 0)
(-0.456851 0.337363 0)
(-0.479873 0.30371 0)
(-0.500483 0.2693 0)
(-0.518876 0.234206 0)
(-0.535216 0.198427 0)
(-0.54962 0.161904 0)
(-0.562136 0.124536 0)
(-0.572738 0.0862042 0)
(-0.581328 0.046794 0)
(-0.587751 0.00621303 0)
(-0.591799 -0.0356 0)
(-0.593228 -0.0786708 0)
(-0.591755 -0.122986 0)
(-0.587061 -0.168487 0)
(-0.578792 -0.21506 0)
(-0.566558 -0.26252 0)
(-0.54995 -0.310592 0)
(-0.528556 -0.358899 0)
(-0.501984 -0.406945 0)
(-0.469887 -0.454109 0)
(-0.431995 -0.499604 0)
(-0.388151 -0.542371 0)
(-0.338378 -0.580773 0)
(-0.283005 -0.611787 0)
(-0.222923 -0.629274 0)
(-0.16004 -0.621037 0)
(-0.0982082 -0.565551 0)
(-0.043694 -0.431838 0)
(-0.00729247 -0.187231 0)
(-0.00636626 0.177569 0)
(-0.0373438 0.404168 0)
(-0.0828001 0.524951 0)
(-0.133792 0.574829 0)
(-0.185564 0.584468 0)
(-0.235476 0.573683 0)
(-0.282371 0.552836 0)
(-0.325768 0.526656 0)
(-0.365529 0.497216 0)
(-0.401683 0.465515 0)
(-0.434359 0.432145 0)
(-0.463746 0.397528 0)
(-0.490076 0.361987 0)
(-0.513614 0.325767 0)
(-0.534651 0.289019 0)
(-0.553471 0.251801 0)
(-0.570324 0.214068 0)
(-0.585388 0.175692 0)
(-0.598746 0.13649 0)
(-0.610374 0.0962601 0)
(-0.620155 0.054814 0)
(-0.627896 0.011999 0)
(-0.633352 -0.0322938 0)
(-0.636237 -0.0781305 0)
(-0.636227 -0.125538 0)
(-0.632955 -0.174501 0)
(-0.625998 -0.22495 0)
(-0.614883 -0.276737 0)
(-0.599093 -0.32961 0)
(-0.578093 -0.383189 0)
(-0.551358 -0.436954 0)
(-0.518403 -0.490225 0)
(-0.478808 -0.542123 0)
(-0.432263 -0.59144 0)
(-0.378643 -0.636275 0)
(-0.318162 -0.673123 0)
(-0.251707 -0.694941 0)
(-0.181387 -0.6879 0)
(-0.111641 -0.62782 0)
(-0.0497783 -0.480115 0)
(-0.00831538 -0.208433 0)
(-0.00713114 0.19538 0)
(-0.0416805 0.443653 0)
(-0.0921028 0.574976 0)
(-0.148321 0.628126 0)
(-0.204975 0.637026 0)
(-0.259122 0.623564 0)
(-0.309512 0.599204 0)
(-0.355681 0.569213 0)
(-0.397558 0.53593 0)
(-0.435267 0.500495 0)
(-0.46903 0.46358 0)
(-0.499124 0.425658 0)
(-0.525867 0.387096 0)
(-0.549623 0.34817 0)
(-0.570794 0.30905 0)
(-0.58979 0.269772 0)
(-0.606976 0.230232 0)
(-0.622613 0.190206 0)
(-0.636826 0.149394 0)
(-0.649587 0.107477 0)
(-0.660739 0.0641714 0)
(-0.670034 0.0192556 0)
(-0.677175 -0.0274268 0)
(-0.681833 -0.0759806 0)
(-0.68365 -0.126476 0)
(-0.682214 -0.178953 0)
(-0.677039 -0.23341 0)
(-0.667554 -0.289761 0)
(-0.653116 -0.347796 0)
(-0.633046 -0.407153 0)
(-0.606658 -0.467296 0)
(-0.573298 -0.527501 0)
(-0.532366 -0.586808 0)
(-0.483344 -0.643868 0)
(-0.425877 -0.696508 0)
(-0.359965 -0.740668 0)
(-0.286388 -0.768215 0)
(-0.207418 -0.763332 0)
(-0.12818 -0.698639 0)
(-0.0573158 -0.535294 0)
(-0.0095844 -0.232728 0)
(-0.0080779 0.215355 0)
(-0.0469994 0.487685 0)
(-0.103395 0.630414 0)
(-0.165756 0.686742 0)
(-0.22798 0.694316 0)
(-0.286777 0.677395 0)
(-0.340831 0.648712 0)
(-0.389746 0.614163 0)
(-0.433579 0.57639 0)
(-0.472597 0.536678 0)
(-0.507146 0.495774 0)
(-0.537608 0.454197 0)
(-0.564388 0.412355 0)
(-0.587955 0.37058 0)
(-0.608856 0.329075 0)
(-0.627672 0.287863 0)
(-0.64493 0.246758 0)
(-0.661015 0.205398 0)
(-0.676101 0.16331 0)
(-0.690136 0.120011 0)
(-0.702887 0.0750917 0)
(-0.714019 0.0282577 0)
(-0.723162 -0.0206837 0)
(-0.729945 -0.0718616 0)
(-0.733991 -0.125384 0)
(-0.734866 -0.181365 0)
(-0.732028 -0.239902 0)
(-0.724797 -0.301006 0)
(-0.712383 -0.364545 0)
(-0.693927 -0.43019 0)
(-0.668559 -0.497405 0)
(-0.635436 -0.565432 0)
(-0.593749 -0.633262 0)
(-0.542718 -0.699449 0)
(-0.481653 -0.761571 0)
(-0.410175 -0.814965 0)
(-0.328768 -0.85019 0)
(-0.239746 -0.848964 0)
(-0.148992 -0.77993 0)
(-0.0668867 -0.599071 0)
(-0.0111995 -0.260904 0)
(-0.00927121 0.238003 0)
(-0.0536312 0.537245 0)
(-0.117304 0.692305 0)
(-0.186951 0.751527 0)
(-0.255537 0.756899 0)
(-0.319396 0.735446 0)
(-0.377199 0.701393 0)
(-0.428705 0.661365 0)
(-0.474197 0.61834 0)
(-0.514155 0.573744 0)
(-0.549089 0.528365 0)
(-0.579485 0.482741 0)
(-0.605818 0.437323 0)
(-0.628656 0.392532 0)
(-0.648731 0.348653 0)
(-0.666864 0.305713 0)
(-0.68383 0.263419 0)
(-0.700192 0.221201 0)
(-0.716186 0.178328 0)
(-0.731698 0.134069 0)
(-0.746353 0.0878567 0)
(-0.759668 0.039327 0)
(-0.771169 -0.0117141 0)
(-0.78045 -0.0653817 0)
(-0.787151 -0.121804 0)
(-0.790864 -0.181187 0)
(-0.79101 -0.243781 0)
(-0.786789 -0.309756 0)
(-0.777224 -0.379097 0)
(-0.761238 -0.451529 0)
(-0.73775 -0.526519 0)
(-0.705723 -0.603285 0)
(-0.664143 -0.680817 0)
(-0.611931 -0.757667 0)
(-0.54793 -0.831269 0)
(-0.471134 -0.896375 0)
(-0.381398 -0.942014 0)
(-0.280776 -0.946802 0)
(-0.175901 -0.874267 0)
(-0.079425 -0.673823 0)
(-0.0133244 -0.294089 0)
(-0.0108139 0.264019 0)
(-0.0620856 0.593636 0)
(-0.134763 0.761975 0)
(-0.213122 0.823502 0)
(-0.288963 0.825375 0)
(-0.358233 0.797922 0)
(-0.419699 0.757143 0)
(-0.473432 0.710515 0)
(-0.520082 0.661376 0)
(-0.560452 0.61125 0)
(-0.595261 0.560889 0)
(-0.625075 0.51079 0)
(-0.65037 0.461429 0)
(-0.671775 0.413402 0)
(-0.690253 0.367169 0)
(-0.70699 0.322812 0)
(-0.723146 0.279897 0)
(-0.739557 0.237535 0)
(-0.756542 0.194588 0)
(-0.77385 0.149946 0)
(-0.790839 0.102832 0)
(-0.806772 0.0528418 0)
(-0.82102 -0.000142589 0)
(-0.833163 -0.0561389 0)
(-0.842933 -0.115249 0)
(-0.850041 -0.1778 0)
(-0.853915 -0.244289 0)
(-0.853613 -0.315141 0)
(-0.847906 -0.390516 0)
(-0.835436 -0.470209 0)
(-0.814877 -0.55366 0)
(-0.785034 -0.640051 0)
(-0.744758 -0.728427 0)
(-0.692695 -0.817518 0)
(-0.62709 -0.904866 0)
(-0.545951 -0.984819 0)
(-0.447926 -1.04472 0)
(-0.334177 -1.05928 0)
(-0.211835 -0.98517 0)
(-0.0964962 -0.763006 0)
(-0.0162401 -0.333978 0)
(-0.0128728 0.294387 0)
(-0.0731602 0.658626 0)
(-0.157175 0.841138 0)
(-0.246026 0.903876 0)
(-0.33007 0.900335 0)
(-0.404925 0.864869 0)
(-0.469659 0.815621 0)
(-0.524908 0.761063 0)
(-0.571917 0.704888 0)
(-0.611973 0.648611 0)
(-0.64605 0.592794 0)
(-0.674727 0.537755 0)
(-0.698309 0.483964 0)
(-0.71737 0.432352 0)
(-0.733176 0.383759 0)
(-0.747483 0.33843 0)