/*--------------------------------*- C++ -*----------------------------------*\
| =========                 |                                                 |
| \\      /  F ield         | OpenFOAM: The Open Source CFD Toolbox           |
|  \\    /   O peration     | Version:  4.1                                   |
|   \\  /    A nd           | Web:      www.OpenFOAM.org                      |
|    \\/     M anipulation  |                                                 |
\*---------------------------------------------------------------------------*/
FoamFile
{
    version     2.0;
    format      ascii;
    class       volVectorField;
    location    "0.142";
    object      U;
}
// * * * * * * * * * * * * * * * * * * * * * * * * * * * * * * * * * * * * * //

dimensions      [0 1 -1 0 0 0 0];

internalField   nonuniform List<vector> 
100
(
(-0.00152893 0.000843135 0)
(-0.00442782 0.00113645 0)
(-0.0120342 0.00143056 0)
(-0.016124 0.000565479 0)
(-0.0205546 0.000272392 0)
(-0.0216494 -0.00113463 0)
(-0.0197132 -0.00176277 0)
(-0.0158233 -0.00324182 0)
(-0.00666461 -0.00316564 0)
(-0.00242878 -0.00262262 0)
(-0.00302863 0.00516889 0)
(-0.010779 0.00929701 0)
(-0.0252518 0.0105713 0)
(-0.0337942 0.00773034 0)
(-0.0416779 0.0056674 0)
(-0.0435545 -2.27473e-06 0)
(-0.0398378 -0.00369775 0)
(-0.0317584 -0.0100855 0)
(-0.0148405 -0.0100838 0)
(-0.00423802 -0.00645298 0)
(-0.00382488 0.0146477 0)
(-0.014095 0.0231366 0)
(-0.0319686 0.0246875 0)
(-0.042942 0.0165423 0)
(-0.0532132 0.0103358 0)
(-0.0563429 -0.00353415 0)
(-0.0530621 -0.013372 0)
(-0.0433977 -0.0288308 0)
(-0.022126 -0.0308037 0)
(-0.00639827 -0.0219778 0)
(-0.00605507 0.022924 0)
(-0.0196849 0.037164 0)
(-0.0423926 0.0396312 0)
(-0.0567206 0.0286545 0)
(-0.0700789 0.0196258 0)
(-0.0757699 -0.000340793 0)
(-0.0741616 -0.0158978 0)
(-0.0636651 -0.0410115 0)
(-0.0364269 -0.0464451 0)
(-0.0110416 -0.0344796 0)
(-0.00713379 0.0406137 0)
(-0.0228817 0.0591376 0)
(-0.0490173 0.0622436 0)
(-0.0662995 0.0434794 0)
(-0.0838718 0.0298416 0)
(-0.0938477 -0.000473825 0)
(-0.0975216 -0.0253304 0)
(-0.0891818 -0.0678579 0)
(-0.0579713 -0.0839932 0)
(-0.018484 -0.0704447 0)
(-0.013995 0.0523619 0)
(-0.0362609 0.0783747 0)
(-0.0683195 0.0832251 0)
(-0.0902552 0.0628737 0)
(-0.111349 0.0480174 0)
(-0.126364 0.013003 0)
(-0.1369 -0.0191757 0)
(-0.13199 -0.0803617 0)
(-0.0969952 -0.115725 0)
(-0.0331214 -0.109947 0)
(-0.0155234 0.091784 0)
(-0.038589 0.112707 0)
(-0.0715186 0.117466 0)
(-0.0932025 0.0850783 0)
(-0.11526 0.0667672 0)
(-0.130756 0.0230892 0)
(-0.148825 -0.0194147 0)
(-0.149076 -0.110329 0)
(-0.123843 -0.184198 0)
(-0.0467406 -0.203972 0)
(-0.0401746 0.104707 0)
(-0.0725799 0.132862 0)
(-0.0879934 0.138139 0)
(-0.0963309 0.105458 0)
(-0.100124 0.0870964 0)
(-0.100933 0.0459125 0)
(-0.116608 0.00189111 0)
(-0.115611 -0.104643 0)
(-0.117234 -0.214124 0)
(-0.0519644 -0.278749 0)
(-0.0361327 0.207561 0)
(-0.0262437 0.158697 0)
(0.00449512 0.144623 0)
(0.0417001 0.0950083 0)
(0.0696854 0.0734008 0)
(0.107201 0.0365572 0)
(0.110033 -0.00294936 0)
(0.123789 -0.113026 0)
(0.056827 -0.247726 0)
(0.0141479 -0.381359 0)
(0.147796 0.161388 0)
(0.236768 0.0895617 0)
(0.384154 0.0720881 0)
(0.458272 0.0396677 0)
(0.514915 0.025107 0)
(0.559133 0.00615343 0)
(0.555805 -0.00778485 0)
(0.551775 -0.0457912 0)
(0.395884 -0.0902604 0)
(0.216294 -0.193791 0)
)
;

boundaryField
{
    movingWall
    {
        type            fixedValue;
        value           uniform (1 0 0);
    }
    fixedWalls
    {
        type            noSlip;
    }
    frontAndBack
    {
        type            empty;
    }
}


// ************************************************************************* //
