/*--------------------------------*- C++ -*----------------------------------*\
| =========                 |                                                 |
| \\      /  F ield         | OpenFOAM: The Open Source CFD Toolbox           |
|  \\    /   O peration     | Version:  4.1                                   |
|   \\  /    A nd           | Web:      www.OpenFOAM.org                      |
|    \\/     M anipulation  |                                                 |
\*---------------------------------------------------------------------------*/
FoamFile
{
    version     2.0;
    format      ascii;
    class       volVectorField;
    location    "0.0952";
    object      U;
}
// * * * * * * * * * * * * * * * * * * * * * * * * * * * * * * * * * * * * * //

dimensions      [0 1 -1 0 0 0 0];

internalField   nonuniform List<vector> 
441
(
(0.00379549 -0.00487476 0)
(0.00994554 -0.0025404 0)
(-0.000635099 -2.21748e-165 0)
(0.00199879 -3.39958e-266 0)
(-0.00836993 -0.00799545 0)
(-0.00199879 -3.10402e-232 0)
(-1.15308e-202 -5.72777e-203 0)
(-1.43188e-203 -7.52096e-228 0)
(-1.7506e-212 -3.28398e-213 0)
(-0.00625141 9.26709e-266 0)
(-0.076674 0.0250065 0)
(-0.096195 0.0130496 0)
(-0.108151 0.0059436 0)
(-0.0948576 0.000355476 0)
(-0.0776901 -0.00172277 0)
(-0.051316 -0.00308756 0)
(-0.0286962 -0.00218574 0)
(-0.00871751 -0.00158214 0)
(0.00323194 0.000808404 0)
(0.00475946 0.00158482 0)
(0.0046292 0.00305273 0)
(0.00393596 -0.00868245 0)
(-0.000758377 0.00689395 0)
(-0.0276294 0.00863514 0)
(-0.0601289 0.0108054 0)
(-0.108741 0.0110929 0)
(-0.154882 -0.0031727 0)
(-0.198422 -0.000133299 0)
(-0.240383 0.0017089 0)
(-0.277614 0.0135002 0)
(-0.315007 0.0682775 0)
(-0.340227 0.0626978 0)
(-0.33402 0.0188644 0)
(-0.318173 -0.00791369 0)
(-0.274339 -0.0316194 0)
(-0.222935 -0.0420265 0)
(-0.158531 -0.0472486 0)
(-0.100509 -0.0402461 0)
(-0.0492154 -0.0316365 0)
(-0.0149054 -0.0137584 0)
(-0.000754367 -0.00370193 0)
(0.00503197 0.00656339 0)
(0.00777662 -0.00855453 0)
(-0.00516935 0.0286375 0)
(-0.0551341 0.0579699 0)
(-0.123267 0.0784945 0)
(-0.206827 0.0855559 0)
(-0.293391 0.0854453 0)
(-0.386594 0.0825216 0)
(-0.462681 0.0766218 0)
(-0.537199 0.0717579 0)
(-0.573682 0.0673023 0)
(-0.569341 0.0449675 0)
(-0.550239 -0.00771532 0)
(-0.51157 -0.0530415 0)
(-0.443961 -0.0946683 0)
(-0.363497 -0.116547 0)
(-0.266625 -0.1258 0)
(-0.177007 -0.1103 0)
(-0.0954066 -0.0877123 0)
(-0.0382762 -0.0465392 0)
(-0.00789978 -0.0188051 0)
(0.00646688 0.00771077 0)
(0.00645278 -0.0116402 0)
(-0.0167405 0.0716075 0)
(-0.0994913 0.126672 0)
(-0.197466 0.165001 0)
(-0.313109 0.181584 0)
(-0.429716 0.179426 0)
(-0.544714 0.170941 0)
(-0.644383 0.153261 0)
(-0.726217 0.127055 0)
(-0.774277 0.097645 0)
(-0.783472 0.0389719 0)
(-0.758512 -0.0400717 0)
(-0.706458 -0.114379 0)
(-0.617502 -0.180916 0)
(-0.510894 -0.219223 0)
(-0.382145 -0.235321 0)
(-0.26078 -0.21091 0)
(-0.146769 -0.172081 0)
(-0.0648123 -0.100371 0)
(-0.0158622 -0.0498455 0)
(0.00807427 0.0055199 0)
(7.05675e-165 0.0016132 0)
(-0.0254825 0.134116 0)
(-0.145007 0.237882 0)
(-0.267742 0.290598 0)
(-0.413799 0.316638 0)
(-0.555938 0.315115 0)
(-0.697392 0.295787 0)
(-0.817273 0.256959 0)
(-0.916523 0.200865 0)
(-0.974934 0.125293 0)
(-0.991981 0.0296113 0)
(-0.968132 -0.0844592 0)
(-0.908008 -0.193283 0)
(-0.802632 -0.290608 0)
(-0.672236 -0.350819 0)
(-0.510128 -0.376855 0)
(-0.354617 -0.344171 0)
(-0.201285 -0.28485 0)
(-0.0917687 -0.175703 0)
(-0.0186894 -0.0925966 0)
(0.0146877 0.000707327 0)
(-5.71844e-266 0.00593675 0)
(-0.0921773 0.221514 0)
(-0.202755 0.366824 0)
(-0.350198 0.435684 0)
(-0.510148 0.469602 0)
(-0.673999 0.464111 0)
(-0.832141 0.432911 0)
(-0.971539 0.372654 0)
(-1.08616 0.285639 0)
(-1.16207 0.172298 0)
(-1.1966 0.0324753 0)
(-1.18117 -0.125106 0)
(-1.12198 -0.279644 0)
(-1.00539 -0.418387 0)
(-0.854528 -0.511306 0)
(-0.658066 -0.555524 0)
(-0.464492 -0.518707 0)
(-0.265263 -0.438172 0)
(-0.122688 -0.280939 0)
(-0.0214477 -0.15958 0)
(0.0161379 0.00289487 0)
(-0.023747 0.0970793 0)
(-0.128552 0.333185 0)
(-0.255727 0.496258 0)
(-0.41778 0.596062 0)
(-0.59709 0.639536 0)
(-0.779642 0.635544 0)
(-0.95827 0.592426 0)
(-1.11778 0.509982 0)
(-1.25349 0.391119 0)
(-1.35006 0.235464 0)
(-1.40482 0.0491926 0)
(-1.40449 -0.159411 0)
(-1.35326 -0.368054 0)
(-1.23226 -0.559062 0)
(-1.06581 -0.696696 0)
(-0.834335 -0.768889 0)
(-0.600336 -0.734692 0)
(-0.341953 -0.629221 0)
(-0.16361 -0.416205 0)
(-0.00822831 -0.233322 0)
(5.99823e-266 -0.00403449 0)
(-0.0175418 0.160744 0)
(-0.123061 0.454672 0)
(-0.278977 0.656566 0)
(-0.461728 0.777809 0)
(-0.660956 0.831634 0)
(-0.862555 0.825546 0)
(-1.0595 0.771324 0)
(-1.2399 0.667721 0)
(-1.39765 0.518342 0)
(-1.51939 0.323051 0)
(-1.6004 0.0873401 0)
(-1.62321 -0.177777 0)
(-1.58974 -0.45135 0)
(-1.47422 -0.708155 0)
(-1.30036 -0.908566 0)
(-1.03884 -1.02532 0)
(-0.762467 -1.00947 0)
(-0.440043 -0.881436 0)
(-0.211922 -0.60999 0)
(-0.00382638 -0.332868 0)
(2.64053e-24 -1.05056e-24 0)
(-0.0155622 0.233915 0)
(-0.126323 0.592685 0)
(-0.298668 0.833205 0)
(-0.495862 0.976078 0)
(-0.710897 1.03893 0)
(-0.927193 1.03237 0)
(-1.14021 0.968766 0)
(-1.33911 0.846899 0)
(-1.51857 0.670315 0)
(-1.66625 0.437546 0)
(-1.77614 0.153612 0)
(-1.82867 -0.170634 0)
(-1.82225 -0.51559 0)
(-1.72459 -0.849832 0)
(-1.55616 -1.12988 0)
(-1.27503 -1.31017 0)
(-0.96167 -1.32982 0)
(-0.570602 -1.18535 0)
(-0.283324 -0.844503 0)
(-0.00507083 -0.453422 0)
(1.07246e-76 -6.60132e-25 0)
(-0.0134296 0.303172 0)
(-0.122974 0.7395 0)
(-0.30376 1.02678 0)
(-0.508525 1.19057 0)
(-0.73223 1.26331 0)
(-0.956961 1.25475 0)
(-1.17917 1.18342 0)
(-1.39102 1.04561 0)
(-1.58713 0.845651 0)
(-1.75826 0.579887 0)
(-1.89697 0.250115 0)
(-1.9836 -0.132856 0)
(-2.013 -0.554713 0)
(-1.9472 -0.976933 0)
(-1.80085 -1.35725 0)
(-1.51782 -1.62598 0)
(-1.17896 -1.71239 0)
(-0.722347 -1.57047 0)
(-0.367824 -1.16978 0)
(-0.00734569 -0.631927 0)
(2.97846e-164 -2.68115e-77 0)
(-0.0132851 0.366782 0)
(-0.122638 0.881221 0)
(-0.307086 1.21635 0)
(-0.51314 1.40219 0)
(-0.736996 1.48557 0)
(-0.960922 1.4772 0)
(-1.18181 1.40166 0)
(-1.39618 1.25333 0)
(-1.59834 1.03713 0)
(-1.78448 0.746537 0)
(-1.94563 0.379594 0)
(-2.06605 -0.0549916 0)
(-2.13625 -0.549894 0)
(-2.11669 -1.06291 0)
(-2.01288 -1.55577 0)
(-1.755 -1.93599 0)
(-1.41567 -2.12027 0)
(-0.913156 -2.0051 0)
(-0.492742 -1.54758 0)
(-0.0820935 -0.83486 0)
(1.79639e-265 0.0133956 0)
(-0.0136143 0.43997 0)
(-0.117796 1.03548 0)
(-0.297776 1.41873 0)
(-0.495322 1.62114 0)
(-0.707579 1.71221 0)
(-0.918198 1.6995 0)
(-1.12362 1.61932 0)
(-1.32598 1.46171 0)
(-1.51888 1.23416 0)
(-1.70581 0.926506 0)
(-1.87705 0.531837 0)
(-2.02381 0.0568261 0)
(-2.13402 -0.503365 0)
(-2.17021 -1.10248 0)
(-2.12845 -1.71762 0)
(-1.92632 -2.2298 0)
(-1.61674 -2.55291 0)
(-1.08866 -2.50803 0)
(-0.589921 -1.99489 0)
(-0.0764738 -1.14475 0)
(0.0535825 -0.0778444 0)
(-0.0166702 0.493795 0)
(-0.119413 1.16242 0)
(-0.296077 1.59096 0)
(-0.480311 1.80868 0)
(-0.669554 1.90665 0)
(-0.853053 1.89068 0)
(-1.02431 1.80853 0)
(-1.19567 1.64712 0)
(-1.35739 1.41678 0)
(-1.52494 1.1043 0)
(-1.68561 0.698447 0)
(-1.84442 0.202533 0)
(-1.98433 -0.400695 0)
(-2.08065 -1.06756 0)
(-2.11601 -1.79405 0)
(-2.00352 -2.44937 0)
(-1.7719 -2.9511 0)
(-1.24455 -3.04093 0)
(-0.71728 -2.55334 0)
(0.0437792 -1.48569 0)
(2.47633e-231 -0.0133956 0)
(-0.0209895 0.579046 0)
(-0.119407 1.31794 0)
(-0.285443 1.78354 0)
(-0.445927 1.99576 0)
(-0.598246 2.08819 0)
(-0.738901 2.05472 0)
(-0.857909 1.96404 0)
(-0.978447 1.79502 0)
(-1.08709 1.56436 0)
(-1.2117 1.25492 0)
(-1.33747 0.851439 0)
(-1.48466 0.355739 0)
(-1.63528 -0.267015 0)
(-1.78209 -0.971073 0)
(-1.90213 -1.79352 0)
(-1.91496 -2.57795 0)
(-1.82004 -3.31007 0)
(-1.40041 -3.58088 0)
(-0.892658 -3.27652 0)
(-0.00292021 -1.90011 0)
(5.83315e-202 4.58887e-184 0)
(-0.0367761 0.627331 0)
(-0.148661 1.42084 0)
(-0.31442 1.91383 0)
(-0.449938 2.11612 0)
(-0.548293 2.19824 0)
(-0.62842 2.14713 0)
(-0.669071 2.04807 0)
(-0.715283 1.87532 0)
(-0.742891 1.6508 0)
(-0.799258 1.35568 0)
(-0.860364 0.973005 0)
(-0.971012 0.503127 0)
(-1.1017 -0.0998007 0)
(-1.28539 -0.796462 0)
(-1.4734 -1.65292 0)
(-1.64519 -2.52793 0)
(-1.72152 -3.44885 0)
(-1.52105 -3.97674 0)
(-1.10603 -3.92707 0)
(-0.011495 -2.40882 0)
(1.83555e-183 -1.5129e-184 0)
(-0.0553391 0.772737 0)
(-0.18194 1.59992 0)
(-0.337362 2.09445 0)
(-0.434789 2.23113 0)
(-0.463137 2.27402 0)
(-0.465521 2.17638 0)
(-0.41073 2.05538 0)
(-0.363769 1.86985 0)
(-0.291078 1.65039 0)
(-0.256094 1.37401 0)
(-0.227584 1.02339 0)
(-0.269027 0.599681 0)
(-0.34643 0.0458905 0)
(-0.522899 -0.595789 0)
(-0.751128 -1.43671 0)
(-1.05721 -2.32615 0)
(-1.35749 -3.43875 0)
(-1.48525 -4.20291 0)
(-1.39238 -4.80274 0)
(-0.466414 -3.05342 0)
(4.40231e-254 -4.58887e-184 0)
(-0.121207 0.850958 0)
(-0.315659 1.68982 0)
(-0.462616 2.1618 0)
(-0.510829 2.23233 0)
(-0.420609 2.22842 0)
(-0.31157 2.08989 0)
(-0.11819 1.94744 0)
(0.0511959 1.75482 0)
(0.254266 1.54489 0)
(0.401842 1.29483 0)
(0.544223 0.988384 0)
(0.589134 0.628135 0)
(0.59638 0.157908 0)
(0.442195 -0.382305 0)
(0.229268 -1.11061 0)
(-0.233575 -1.91054 0)
(-0.691346 -2.9947 0)
(-1.44124 -3.94064 0)
(-1.63907 -4.85488 0)
(-2.07422 -3.87746 0)
(-2.59619e-264 -0.216221 0)
(-0.177846 1.23139 0)
(-0.414194 1.94574 0)
(-0.496637 2.31212 0)
(-0.444992 2.18932 0)
(-0.201252 2.08859 0)
(0.0514464 1.87347 0)
(0.399571 1.69919 0)
(0.707051 1.49749 0)
(1.04658 1.30197 0)
(1.31521 1.086 0)
(1.57512 0.83576 0)
(1.72167 0.552668 0)
(1.82613 0.189558 0)
(1.74694 -0.219176 0)
(1.59254 -0.771921 0)
(1.14339 -1.38935 0)
(0.602929 -2.26288 0)
(-0.333785 -3.21131 0)
(-1.0731 -4.2605 0)
(-1.84021 -4.54157 0)
(-0.864884 -2.31825 0)
(-0.400651 1.40887 0)
(-0.725199 1.97996 0)
(-0.516292 2.18686 0)
(-0.232078 1.91989 0)
(0.328881 1.73285 0)
(0.79764 1.48094 0)
(1.35743 1.29375 0)
(1.81819 1.10573 0)
(2.29563 0.938764 0)
(2.66962 0.769363 0)
(3.02587 0.584492 0)
(3.24528 0.385939 0)
(3.42508 0.136147 0)
(3.39265 -0.133137 0)
(3.30818 -0.503663 0)
(2.87523 -0.899245 0)
(2.39787 -1.51877 0)
(1.37142 -2.23543 0)
(0.463485 -3.35433 0)
(-0.704615 -4.0075 0)
(-0.701593 -2.96435 0)
(-0.257661 2.41923 0)
(-0.105431 2.05602 0)
(0.682099 1.86932 0)
(1.33104 1.33581 0)
(2.15073 1.07877 0)
(2.78244 0.837611 0)
(3.44165 0.684535 0)
(3.95947 0.554902 0)
(4.46347 0.451029 0)
(4.84764 0.355541 0)
(5.20242 0.258705 0)
(5.42028 0.158959 0)
(5.59966 0.0389879 0)
(5.58225 -0.0894294 0)
(5.52663 -0.264598 0)
(5.15733 -0.45766 0)
(4.76537 -0.790824 0)
(3.83229 -1.24482 0)
(2.86802 -2.25328 0)
(1.0931 -3.33041 0)
(-0.0464746 -3.79872 0)
(1.66686 1.66918 0)
(2.7013 0.974212 0)
(4.54075 0.748146 0)
(5.37988 0.423903 0)
(6.24888 0.28676 0)
(6.76151 0.178534 0)
(7.24404 0.121743 0)
(7.57021 0.0812643 0)
(7.87035 0.0546212 0)
(8.0741 0.0338257 0)
(8.25642 0.0152718 0)
(8.34513 -0.00212173 0)
(8.41637 -0.0232692 0)
(8.35707 -0.0440093 0)
(8.29448 -0.0791802 0)
(8.00615 -0.111926 0)
(7.74969 -0.200831 0)
(6.99541 -0.293166 0)
(6.26205 -0.624896 0)
(4.04568 -0.997108 0)
(2.00497 -1.81765 0)
)
;

boundaryField
{
    movingWall
    {
        type            fixedValue;
        value           uniform (10 0 0);
    }
    fixedWalls
    {
        type            noSlip;
    }
    frontAndBack
    {
        type            empty;
    }
}


// ************************************************************************* //
