/*--------------------------------*- C++ -*----------------------------------*\
| =========                 |                                                 |
| \\      /  F ield         | OpenFOAM: The Open Source CFD Toolbox           |
|  \\    /   O peration     | Version:  4.1                                   |
|   \\  /    A nd           | Web:      www.OpenFOAM.org                      |
|    \\/     M anipulation  |                                                 |
\*---------------------------------------------------------------------------*/
FoamFile
{
    version     2.0;
    format      ascii;
    class       volVectorField;
    location    "8.75";
    object      U;
}
// * * * * * * * * * * * * * * * * * * * * * * * * * * * * * * * * * * * * * //

dimensions      [0 1 -1 0 0 0 0];

internalField   nonuniform List<vector> 
400
(
(0.000197206 -0.000194349 0)
(-9.49172e-05 8.53359e-05 0)
(-0.00153621 0.000331154 0)
(-0.00372287 0.000512208 0)
(-0.00642132 0.000600444 0)
(-0.00929555 0.000629967 0)
(-0.0121222 0.000605676 0)
(-0.0146598 0.000531764 0)
(-0.0166821 0.000402137 0)
(-0.0179549 0.000214997 0)
(-0.0182725 -2.31488e-05 0)
(-0.0174982 -0.00029032 0)
(-0.0156161 -0.000549056 0)
(-0.0127808 -0.000748876 0)
(-0.00932199 -0.000840727 0)
(-0.00574375 -0.000785075 0)
(-0.00259145 -0.000583961 0)
(-0.000417631 -0.000258627 0)
(0.000547397 7.0377e-05 0)
(0.000313427 0.00029855 0)
(-8.95535e-05 8.56167e-05 0)
(-0.00204717 0.00192336 0)
(-0.00643222 0.00363158 0)
(-0.012347 0.00485371 0)
(-0.01929 0.00547747 0)
(-0.0265338 0.00559312 0)
(-0.033526 0.00523909 0)
(-0.039682 0.00443476 0)
(-0.0444606 0.00317875 0)
(-0.0473411 0.00150139 0)
(-0.0479011 -0.000501737 0)
(-0.0458933 -0.00264264 0)
(-0.0413381 -0.00464377 0)
(-0.034605 -0.00616861 0)
(-0.0264147 -0.00689637 0)
(-0.0178279 -0.00660235 0)
(-0.0099959 -0.00528784 0)
(-0.0040867 -0.00318101 0)
(-0.000627273 -0.000946587 0)
(0.000175168 0.000579849 0)
(-0.000416738 0.00166226 0)
(-0.00433044 0.00643593 0)
(-0.0116989 0.010462 0)
(-0.0210434 0.0132252 0)
(-0.0316506 0.0145783 0)
(-0.0425154 0.0146606 0)
(-0.0528619 0.0135481 0)
(-0.0618716 0.0112872 0)
(-0.0687958 0.00791352 0)
(-0.0729347 0.00354525 0)
(-0.0737357 -0.00154879 0)
(-0.0708832 -0.00690418 0)
(-0.0644045 -0.0118717 0)
(-0.0547696 -0.015687 0)
(-0.0429034 -0.0176221 0)
(-0.0302006 -0.0171681 0)
(-0.0182224 -0.0142969 0)
(-0.00864969 -0.00952391 0)
(-0.00234284 -0.00420475 0)
(-1.58905e-05 -2.15298e-05 0)
(-0.000737948 0.00440914 0)
(-0.00657413 0.013328 0)
(-0.0168042 0.0202459 0)
(-0.029308 0.0247598 0)
(-0.0431711 0.0268283 0)
(-0.0571696 0.0266815 0)
(-0.0703874 0.024451 0)
(-0.0818618 0.0202211 0)
(-0.0907197 0.0140809 0)
(-0.0961464 0.00625946 0)
(-0.0974861 -0.0027731 0)
(-0.0943297 -0.0122416 0)
(-0.0866272 -0.0210773 0)
(-0.074814 -0.0280158 0)
(-0.0598605 -0.031817 0)
(-0.0433658 -0.0315616 0)
(-0.0272431 -0.0270776 0)
(-0.0137611 -0.0191158 0)
(-0.00425935 -0.00974392 0)
(-0.000209587 -0.00152832 0)
(-0.00101185 0.00829644 0)
(-0.00858352 0.0225657 0)
(-0.0214269 0.0329306 0)
(-0.0367933 0.0393674 0)
(-0.0535782 0.0421066 0)
(-0.0703811 0.0415406 0)
(-0.086207 0.0378887 0)
(-0.100017 0.0312838 0)
(-0.110874 0.0218718 0)
(-0.117882 0.00998738 0)
(-0.120278 -0.00370953 0)
(-0.117502 -0.0181432 0)
(-0.10932 -0.0318145 0)
(-0.0959845 -0.0429006 0)
(-0.0783533 -0.049517 0)
(-0.0581169 -0.0501312 0)
(-0.0375282 -0.0441984 0)
(-0.0195991 -0.0325497 0)
(-0.00637747 -0.0179651 0)
(-0.00038835 -0.00403332 0)
(-0.00124376 0.0131414 0)
(-0.0103014 0.0338131 0)
(-0.0254072 0.0481071 0)
(-0.0432593 0.0566058 0)
(-0.062591 0.05998 0)
(-0.0818719 0.0588709 0)
(-0.100081 0.0536281 0)
(-0.116163 0.0444416 0)
(-0.129166 0.0314985 0)
(-0.138144 0.0151996 0)
(-0.142221 -0.00366399 0)
(-0.140639 -0.0237806 0)
(-0.132875 -0.0432617 0)
(-0.118844 -0.0596993 0)
(-0.0991026 -0.0704209 0)
(-0.0752588 -0.0729982 0)
(-0.0498299 -0.0661351 0)
(-0.0267153 -0.0504293 0)
(-0.00896732 -0.0293122 0)
(-0.000602444 -0.00765271 0)
(-0.00142376 0.0187906 0)
(-0.0116613 0.0467593 0)
(-0.0285863 0.0654052 0)
(-0.0484492 0.0761047 0)
(-0.0698592 0.0801204 0)
(-0.0912054 0.0784309 0)
(-0.111488 0.0715639 0)
(-0.129692 0.0597734 0)
(-0.144904 0.0432612 0)
(-0.156168 0.0224323 0)
(-0.162515 -0.00188478 0)
(-0.162976 -0.0282543 0)
(-0.156676 -0.0544967 0)
(-0.143055 -0.0776502 0)
(-0.122148 -0.0941387 0)
(-0.0952078 -0.100309 0)
(-0.0647904 -0.0935656 0)
(-0.035708 -0.0737142 0)
(-0.0123512 -0.0446022 0)
(-0.000901064 -0.0127122 0)
(-0.00154681 0.0250317 0)
(-0.0126092 0.0609742 0)
(-0.0308214 0.0843001 0)
(-0.0521028 0.0973159 0)
(-0.0749759 0.102008 0)
(-0.0977998 0.0997778 0)
(-0.11964 0.0913839 0)
(-0.139578 0.0771549 0)
(-0.156796 0.0572799 0)
(-0.170396 0.0320962 0)
(-0.17938 0.002355 0)
(-0.182614 -0.0305376 0)
(-0.178879 -0.0642805 0)
(-0.167062 -0.09549 0)
(-0.146467 -0.119676 0)
(-0.117617 -0.131668 0)
(-0.0826681 -0.126884 0)
(-0.0470991 -0.10342 0)
(-0.016893 -0.0648993 0)
(-0.0013511 -0.0197077 0)
(-0.00161002 0.0316459 0)
(-0.0131112 0.075994 0)
(-0.0320066 0.104203 0)
(-0.0539963 0.119591 0)
(-0.0775455 0.124982 0)
(-0.101032 0.122281 0)
(-0.123626 0.112538 0)
(-0.144559 0.0961786 0)
(-0.163182 0.073363 0)
(-0.178739 0.0443002 0)
(-0.190308 0.00955134 0)
(-0.196712 -0.0296826 0)
(-0.196493 -0.0712138 0)
(-0.188012 -0.1115 0)
(-0.169714 -0.145315 0)
(-0.141002 -0.165865 0)
(-0.102985 -0.165871 0)
(-0.0611342 -0.140412 0)
(-0.0229566 -0.0914897 0)
(-0.00203463 -0.029356 0)
(-0.00162197 0.0383904 0)
(-0.0131944 0.0912929 0)
(-0.0321429 0.124416 0)
(-0.0540389 0.142115 0)
(-0.077309 0.148154 0)
(-0.100402 0.145019 0)
(-0.122628 0.134124 0)
(-0.14343 0.116024 0)
(-0.162391 0.0908607 0)
(-0.178999 0.0586824 0)
(-0.192545 0.0197744 0)
(-0.201978 -0.0250318 0)
(-0.205797 -0.0739321 0)
(-0.202008 -0.123611 0)
(-0.188246 -0.168532 0)
(-0.162519 -0.20052 0)
(-0.124184 -0.209144 0)
(-0.0775366 -0.184896 0)
(-0.0308726 -0.125654 0)
(-0.00306562 -0.0425909 0)
(-0.00161935 0.0451024 0)
(-0.0129924 0.106423 0)
(-0.0314054 0.144263 0)
(-0.0523641 0.164003 0)
(-0.0742669 0.17048 0)
(-0.0957024 0.166829 0)
(-0.116164 0.154912 0)
(-0.135365 0.135461 0)
(-0.153185 0.108633 0)
(-0.169444 0.0743196 0)
(-0.183772 0.0324927 0)
(-0.195432 -0.016501 0)
(-0.203132 -0.0714873 0)
(-0.204818 -0.129821 0)
(-0.197592 -0.186305 0)
(-0.178081 -0.232087 0)
(-0.143396 -0.253731 0)
(-0.0951727 -0.235797 0)
(-0.0408371 -0.168309 0)
(-0.00460239 -0.060573 0)
(-0.00167114 0.051657 0)
(-0.0128135 0.120954 0)
(-0.0302559 0.163016 0)
(-0.049468 0.184243 0)
(-0.068832 0.19072 0)
(-0.0871979 0.186299 0)
(-0.104301 0.173375 0)
(-0.120198 0.152907 0)
(-0.135113 0.125112 0)
(-0.149262 0.0897591 0)
(-0.162701 0.0465255 0)
(-0.175148 -0.00476336 0)
(-0.185766 -0.0637165 0)
(-0.192798 -0.128746 0)
(-0.193303 -0.195728 0)
(-0.182908 -0.256276 0)
(-0.156516 -0.294969 0)
(-0.111728 -0.290086 0)
(-0.0527076 -0.219397 0)
(-0.00685646 -0.0846219 0)
(-0.00193843 0.0583787 0)
(-0.0132004 0.13495 0)
(-0.0294507 0.180301 0)
(-0.0461773 0.201973 0)
(-0.0617722 0.207645 0)
(-0.0755587 0.201936 0)
(-0.0875982 0.187849 0)
(-0.0983833 0.166583 0)
(-0.108512 0.138455 0)
(-0.11862 0.103154 0)
(-0.129218 0.0601184 0)
(-0.140544 0.00870211 0)
(-0.152383 -0.0514978 0)
(-0.163598 -0.120158 0)
(-0.171799 -0.194842 0)
(-0.17233 -0.268967 0)
(-0.158627 -0.327032 0)
(-0.123535 -0.342437 0)
(-0.0656339 -0.277123 0)
(-0.010076 -0.116087 0)
(-0.00267132 0.0655343 0)
(-0.0151374 0.148303 0)
(-0.0302916 0.195472 0)
(-0.0438535 0.216007 0)
(-0.0542907 0.21972 0)
(-0.0618107 0.212 0)
(-0.0669266 0.196487 0)
(-0.0706959 0.174583 0)
(-0.0741003 0.1467 0)
(-0.0781859 0.112476 0)
(-0.0838794 0.071186 0)
(-0.0919246 0.0218294 0)
(-0.102786 -0.0366534 0)
(-0.116143 -0.105152 0)
(-0.130702 -0.183204 0)
(-0.142371 -0.267173 0)
(-0.144558 -0.343919 0)
(-0.12563 -0.385403 0)
(-0.0775479 -0.337072 0)
(-0.0144659 -0.155854 0)
(-0.0044175 0.0753964 0)
(-0.0199113 0.162714 0)
(-0.0340424 0.209052 0)
(-0.0435083 0.22569 0)
(-0.0469856 0.225582 0)
(-0.0462172 0.214749 0)
(-0.0423046 0.19738 0)
(-0.0370208 0.17492 0)
(-0.0317144 0.147796 0)
(-0.0278025 0.11558 0)
(-0.0265544 0.0774371 0)
(-0.0291385 0.0321592 0)
(-0.0366534 -0.0217363 0)
(-0.0496278 -0.086054 0)
(-0.0682135 -0.162149 0)
(-0.0896215 -0.249888 0)
(-0.109066 -0.340803 0)
(-0.111815 -0.410463 0)
(-0.0844514 -0.391857 0)
(-0.0199788 -0.20392 0)
(-0.00803072 0.0881878 0)
(-0.0301201 0.177264 0)
(-0.0426563 0.219 0)
(-0.0459667 0.228318 0)
(-0.0392453 0.222375 0)
(-0.0270624 0.20749 0)
(-0.0112273 0.188087 0)
(0.00561755 0.165392 0)
(0.0218408 0.139692 0)
(0.0357432 0.110459 0)
(0.0458334 0.0767909 0)
(0.0506452 0.0374176 0)
(0.048578 -0.00929477 0)
(0.0383798 -0.0655992 0)
(0.0183996 -0.134106 0)
(-0.0102629 -0.217861 0)
(-0.0463884 -0.314489 0)
(-0.074438 -0.408629 0)
(-0.0796799 -0.430155 0)
(-0.0257417 -0.25706 0)
(-0.0146398 0.114317 0)
(-0.0453672 0.197523 0)
(-0.0519471 0.226517 0)
(-0.0437788 0.222076 0)
(-0.0213427 0.207124 0)
(0.00660882 0.187062 0)
(0.0377573 0.16564 0)
(0.0686664 0.143348 0)
(0.0976474 0.120032 0)
(0.122912 0.0949666 0)
(0.142935 0.0671865 0)
(0.156133 0.0354753 0)
(0.160625 -0.00173198 0)
(0.154659 -0.0466567 0)
(0.135366 -0.102424 0)
(0.102148 -0.174052 0)
(0.0515836 -0.265137 0)
(-0.00281156 -0.373399 0)
(-0.0518361 -0.43898 0)
(-0.0285151 -0.309841 0)
(-0.0256249 0.141914 0)
(-0.0656674 0.209145 0)
(-0.0481758 0.216614 0)
(-0.0149046 0.195309 0)
(0.0336657 0.171613 0)
(0.0834215 0.14824 0)
(0.133034 0.12691 0)
(0.179144 0.107107 0)
(0.220698 0.0880689 0)
(0.256348 0.0689071 0)
(0.284923 0.0486615 0)
(0.305046 0.0263052 0)
(0.314897 0.000552795 0)
(0.3125 -0.0303288 0)
(0.294347 -0.0691639 0)
(0.258366 -0.12097 0)
(0.196784 -0.193163 0)
(0.118551 -0.296368 0)
(0.0176978 -0.395403 0)
(-0.0171901 -0.338929 0)
(-0.0187379 0.214625 0)
(-0.0197835 0.215348 0)
(0.0566008 0.181527 0)
(0.128576 0.140279 0)
(0.205353 0.110389 0)
(0.273443 0.0881386 0)
(0.334941 0.0709138 0)
(0.388448 0.0570017 0)
(0.434316 0.0449789 0)
(0.472287 0.0338801 0)
(0.501965 0.0228837 0)
(0.522559 0.0112827 0)
(0.532762 -0.00175388 0)
(0.53082 -0.0172094 0)
(0.513569 -0.0370838 0)
(0.478031 -0.0647923 0)
(0.414489 -0.108565 0)
(0.323865 -0.186712 0)
(0.173129 -0.296549 0)
(0.0429664 -0.335031 0)
(0.211342 0.129553 0)
(0.297309 0.100947 0)
(0.451209 0.067463 0)
(0.5433 0.0443021 0)
(0.618029 0.0290674 0)
(0.673878 0.0198313 0)
(0.717761 0.0138334 0)
(0.752325 0.00979508 0)
(0.779546 0.00682592 0)
(0.800425 0.00443128 0)
(0.815395 0.00228073 0)
(0.824403 0.00015468 0)
(0.826951 -0.00216897 0)
(0.822036 -0.00487853 0)
(0.807782 -0.00852003 0)
(0.781209 -0.0136904 0)
(0.734285 -0.0229004 0)
(0.65859 -0.0407299 0)
(0.498158 -0.0743702 0)
(0.288346 -0.136217 0)
)
;

boundaryField
{
    movingWall
    {
        type            fixedValue;
        value           uniform (1 0 0);
    }
    fixedWalls
    {
        type            noSlip;
    }
    frontAndBack
    {
        type            empty;
    }
}


// ************************************************************************* //
