/*--------------------------------*- C++ -*----------------------------------*\
| =========                 |                                                 |
| \\      /  F ield         | OpenFOAM: The Open Source CFD Toolbox           |
|  \\    /   O peration     | Version:  4.1                                   |
|   \\  /    A nd           | Web:      www.OpenFOAM.org                      |
|    \\/     M anipulation  |                                                 |
\*---------------------------------------------------------------------------*/
FoamFile
{
    version     2.0;
    format      ascii;
    class       volVectorField;
    location    "17.5";
    object      U;
}
// * * * * * * * * * * * * * * * * * * * * * * * * * * * * * * * * * * * * * //

dimensions      [0 1 -1 0 0 0 0];

internalField   nonuniform List<vector> 
10000
(
(5.00075e-06 -4.9999e-06 0)
(2.13693e-05 -9.01157e-06 0)
(3.90919e-05 -9.39241e-06 0)
(5.30975e-05 -6.79932e-06 0)
(5.97121e-05 -2.32756e-06 0)
(5.66517e-05 3.19709e-06 0)
(4.26983e-05 9.21278e-06 0)
(1.73833e-05 1.53507e-05 0)
(-1.92587e-05 2.13731e-05 0)
(-6.68634e-05 2.71303e-05 0)
(-0.000124858 3.25311e-05 0)
(-0.000192541 3.75241e-05 0)
(-0.000269145 4.20844e-05 0)
(-0.000353868 4.6205e-05 0)
(-0.000445904 4.98905e-05 0)
(-0.000544463 5.31536e-05 0)
(-0.000648776 5.60116e-05 0)
(-0.000758108 5.84844e-05 0)
(-0.00087176 6.05933e-05 0)
(-0.000989069 6.23593e-05 0)
(-0.00110941 6.3803e-05 0)
(-0.00123219 6.49434e-05 0)
(-0.00135686 6.5798e-05 0)
(-0.00148288 6.63823e-05 0)
(-0.00160975 6.67096e-05 0)
(-0.001737 6.67914e-05 0)
(-0.00186417 6.66368e-05 0)
(-0.0019908 6.62532e-05 0)
(-0.00211648 6.56458e-05 0)
(-0.00224076 6.48184e-05 0)
(-0.00236324 6.37733e-05 0)
(-0.00248349 6.25113e-05 0)
(-0.00260111 6.10327e-05 0)
(-0.00271568 5.93365e-05 0)
(-0.00282678 5.74216e-05 0)
(-0.00293399 5.52865e-05 0)
(-0.0030369 5.293e-05 0)
(-0.00313509 5.03509e-05 0)
(-0.00322812 4.75489e-05 0)
(-0.00331559 4.45243e-05 0)
(-0.00339707 4.12785e-05 0)
(-0.00347215 3.78142e-05 0)
(-0.00354042 3.41356e-05 0)
(-0.00360148 3.02486e-05 0)
(-0.00365495 2.61609e-05 0)
(-0.00370047 2.1882e-05 0)
(-0.00373769 1.74237e-05 0)
(-0.00376629 1.27998e-05 0)
(-0.00378597 8.02632e-06 0)
(-0.00379647 3.12169e-06 0)
(-0.00379758 -1.89358e-06 0)
(-0.00378911 -6.99673e-06 0)
(-0.00377093 -1.21629e-05 0)
(-0.00374294 -1.73651e-05 0)
(-0.00370511 -2.25746e-05 0)
(-0.00365745 -2.77609e-05 0)
(-0.00360006 -3.28919e-05 0)
(-0.00353307 -3.79345e-05 0)
(-0.00345667 -4.28543e-05 0)
(-0.00337115 -4.76165e-05 0)
(-0.00327682 -5.21858e-05 0)
(-0.00317409 -5.65269e-05 0)
(-0.00306342 -6.0605e-05 0)
(-0.00294535 -6.43861e-05 0)
(-0.00282045 -6.78371e-05 0)
(-0.00268938 -7.09268e-05 0)
(-0.00255285 -7.36257e-05 0)
(-0.00241161 -7.59067e-05 0)
(-0.00226648 -7.77456e-05 0)
(-0.00211829 -7.91211e-05 0)
(-0.00196794 -8.00153e-05 0)
(-0.00181634 -8.04139e-05 0)
(-0.00166442 -8.03067e-05 0)
(-0.00151315 -7.96876e-05 0)
(-0.00136348 -7.85546e-05 0)
(-0.00121636 -7.69102e-05 0)
(-0.00107276 -7.47617e-05 0)
(-0.000933606 -7.21204e-05 0)
(-0.000799801 -6.90027e-05 0)
(-0.00067222 -6.54291e-05 0)
(-0.000551695 -6.14249e-05 0)
(-0.000439002 -5.70198e-05 0)
(-0.000334861 -5.2248e-05 0)
(-0.000239922 -4.71486e-05 0)
(-0.000154754 -4.17656e-05 0)
(-7.98441e-05 -3.61483e-05 0)
(-1.55762e-05 -3.03525e-05 0)
(3.77748e-05 -2.44413e-05 0)
(8.00607e-05 -1.84872e-05 0)
(0.000111279 -1.25752e-05 0)
(0.000131597 -6.80649e-06 0)
(0.000141386 -1.30521e-06 0)
(0.00014127 3.77335e-06 0)
(0.00013218 8.23022e-06 0)
(0.000115445 1.18068e-05 0)
(9.28947e-05 1.41654e-05 0)
(6.69857e-05 1.48741e-05 0)
(4.09014e-05 1.34216e-05 0)
(1.84258e-05 9.40741e-06 0)
(3.47651e-06 3.47118e-06 0)
(9.0521e-06 -2.13843e-05 0)
(3.92394e-05 -3.91115e-05 0)
(6.80347e-05 -3.81388e-05 0)
(8.47518e-05 -2.38247e-05 0)
(8.13809e-05 -9.38201e-07 0)
(5.26915e-05 2.69395e-05 0)
(-4.34369e-06 5.72719e-05 0)
(-9.10843e-05 8.8322e-05 0)
(-0.000207686 0.000118927 0)
(-0.000353458 0.000148324 0)
(-0.000527129 0.000176033 0)
(-0.000727049 0.000201764 0)
(-0.00095133 0.000225364 0)
(-0.00119795 0.000246771 0)
(-0.00146483 0.000265986 0)
(-0.0017499 0.000283054 0)
(-0.00205109 0.000298047 0)
(-0.00236642 0.000311054 0)
(-0.00269398 0.000322172 0)
(-0.00303192 0.000331499 0)
(-0.00337848 0.000339134 0)
(-0.00373201 0.000345168 0)
(-0.00409091 0.000349687 0)
(-0.00445365 0.000352768 0)
(-0.0048188 0.000354476 0)
(-0.00518495 0.000354869 0)
(-0.00555077 0.000353994 0)
(-0.00591494 0.000351888 0)
(-0.00627619 0.000348579 0)
(-0.00663328 0.000344088 0)
(-0.00698498 0.000338427 0)
(-0.00733008 0.000331604 0)
(-0.00766735 0.00032362 0)
(-0.00799559 0.000314474 0)
(-0.0083136 0.000304163 0)
(-0.00862018 0.000292682 0)
(-0.00891411 0.000280026 0)
(-0.00919419 0.000266194 0)
(-0.00945922 0.000251187 0)
(-0.009708 0.00023501 0)
(-0.00993936 0.000217673 0)
(-0.0101521 0.000199194 0)
(-0.0103452 0.000179598 0)
(-0.0105174 0.000158918 0)
(-0.0106678 0.000137198 0)
(-0.0107952 0.000114491 0)
(-0.0108989 9.08596e-05 0)
(-0.0109778 6.63792e-05 0)
(-0.0110312 4.11357e-05 0)
(-0.0110585 1.52264e-05 0)
(-0.011059 -1.12399e-05 0)
(-0.0110322 -3.81434e-05 0)
(-0.0109779 -6.53533e-05 0)
(-0.0108958 -9.27288e-05 0)
(-0.0107858 -0.00012012 0)
(-0.0106482 -0.000147367 0)
(-0.010483 -0.000174304 0)
(-0.0102907 -0.000200758 0)
(-0.010072 -0.000226553 0)
(-0.00982767 -0.000251508 0)
(-0.00955858 -0.00027544 0)
(-0.00926591 -0.000298169 0)
(-0.00895097 -0.000319514 0)
(-0.00861526 -0.0003393 0)
(-0.00826043 -0.000357358 0)
(-0.00788832 -0.000373527 0)
(-0.00750088 -0.000387657 0)
(-0.00710025 -0.000399608 0)
(-0.00668865 -0.000409256 0)
(-0.00626846 -0.000416492 0)
(-0.00584213 -0.000421226 0)
(-0.00541219 -0.000423384 0)
(-0.00498124 -0.000422914 0)
(-0.00455192 -0.000419787 0)
(-0.00412687 -0.000413992 0)
(-0.00370875 -0.000405546 0)
(-0.00330019 -0.000394484 0)
(-0.00290375 -0.000380868 0)
(-0.00252193 -0.000364783 0)
(-0.00215713 -0.000346339 0)
(-0.00181164 -0.000325666 0)
(-0.00148758 -0.000302923 0)
(-0.00118692 -0.00027829 0)
(-0.000911408 -0.000251973 0)
(-0.000662602 -0.000224203 0)
(-0.000441788 -0.000195244 0)
(-0.000249976 -0.000165388 0)
(-8.78569e-05 -0.00013497 0)
(4.42356e-05 -0.000104371 0)
(0.000146377 -7.40331e-05 0)
(0.000219116 -4.44809e-05 0)
(0.000263548 -1.63445e-05 0)
(0.000281423 9.60143e-06 0)
(0.000275265 3.23895e-05 0)
(0.00024853 5.08009e-05 0)
(0.000205779 6.33058e-05 0)
(0.00015285 6.8041e-05 0)
(9.69359e-05 6.29329e-05 0)
(4.62795e-05 4.6259e-05 0)
(9.40691e-06 1.83992e-05 0)
(9.49704e-06 -3.92242e-05 0)
(3.85113e-05 -6.79821e-05 0)
(5.9481e-05 -5.905e-05 0)
(5.90327e-05 -2.36318e-05 0)
(2.68963e-05 2.91383e-05 0)
(-4.38136e-05 9.23494e-05 0)
(-0.000157263 0.000160954 0)
(-0.00031546 0.000231359 0)
(-0.000518783 0.000301063 0)
(-0.000766401 0.000368358 0)
(-0.00105662 0.000432111 0)
(-0.00138714 0.000491608 0)
(-0.00175527 0.000546431 0)
(-0.00215806 0.000596373 0)
(-0.00259245 0.000641381 0)
(-0.00305529 0.000681505 0)
(-0.0035435 0.000716866 0)
(-0.004054 0.000747628 0)
(-0.00458383 0.000773984 0)
(-0.00513012 0.000796136 0)
(-0.00569011 0.000814288 0)
(-0.00626114 0.000828637 0)
(-0.00684069 0.000839366 0)
(-0.00742631 0.000846642 0)
(-0.00801567 0.000850613 0)
(-0.00860649 0.000851404 0)
(-0.0091966 0.000849123 0)
(-0.00978388 0.000843855 0)
(-0.0103662 0.000835667 0)
(-0.0109416 0.000824607 0)
(-0.0115081 0.00081071 0)
(-0.0120636 0.000793995 0)
(-0.0126062 0.000774475 0)
(-0.0131339 0.00075215 0)
(-0.0136448 0.00072702 0)
(-0.0141369 0.000699083 0)
(-0.0146083 0.000668335 0)
(-0.0150571 0.000634782 0)
(-0.0154813 0.000598433 0)
(-0.015879 0.00055931 0)
(-0.0162484 0.000517446 0)
(-0.0165876 0.000472892 0)
(-0.0168949 0.000425715 0)
(-0.0171685 0.000376003 0)
(-0.0174067 0.000323864 0)
(-0.0176081 0.00026943 0)
(-0.017771 0.000212858 0)
(-0.0178943 0.000154331 0)
(-0.0179767 9.40549e-05 0)
(-0.0180171 3.22646e-05 0)
(-0.0180147 -3.07804e-05 0)
(-0.0179688 -9.47953e-05 0)
(-0.0178788 -0.00015947 0)
(-0.0177446 -0.000224474 0)
(-0.0175661 -0.000289451 0)
(-0.0173434 -0.000354031 0)
(-0.0170771 -0.000417822 0)
(-0.0167678 -0.000480424 0)
(-0.0164165 -0.000541421 0)
(-0.0160246 -0.000600396 0)
(-0.0155935 -0.000656924 0)
(-0.0151252 -0.000710584 0)
(-0.0146215 -0.000760961 0)
(-0.014085 -0.000807648 0)
(-0.0135183 -0.000850256 0)
(-0.0129242 -0.000888413 0)
(-0.0123059 -0.00092177 0)
(-0.0116667 -0.000950009 0)
(-0.01101 -0.000972844 0)
(-0.0103397 -0.000990025 0)
(-0.00965949 -0.00100134 0)
(-0.00897341 -0.00100663 0)
(-0.00828551 -0.00100578 0)
(-0.00759991 -0.000998704 0)
(-0.00692074 -0.000985401 0)
(-0.00625215 -0.000965903 0)
(-0.00559823 -0.000940301 0)
(-0.00496298 -0.000908741 0)
(-0.00435029 -0.000871426 0)
(-0.00376391 -0.000828615 0)
(-0.00320738 -0.000780622 0)
(-0.002684 -0.00072782 0)
(-0.00219681 -0.00067064 0)
(-0.00174854 -0.000609572 0)
(-0.00134155 -0.00054517 0)
(-0.000977815 -0.000478059 0)
(-0.000658857 -0.000408938 0)
(-0.000385696 -0.000338598 0)
(-0.000158786 -0.000267941 0)
(2.20541e-05 -0.000197999 0)
(0.00015773 -0.000129979 0)
(0.000249975 -6.53062e-05 0)
(0.000301472 -5.68866e-06 0)
(0.000316004 4.68022e-05 0)
(0.000298618 8.9644e-05 0)
(0.000255798 0.000119785 0)
(0.00019561 0.000133632 0)
(0.000127735 0.000127232 0)
(6.31551e-05 9.69067e-05 0)
(1.34526e-05 4.08414e-05 0)
(6.95771e-06 -5.34658e-05 0)
(2.43499e-05 -8.49104e-05 0)
(2.41448e-05 -5.86549e-05 0)
(-7.96173e-06 8.24724e-06 0)
(-8.31197e-05 0.0001022 0)
(-0.000208861 0.000212804 0)
(-0.000389835 0.000332282 0)
(-0.000628341 0.000454939 0)
(-0.000924832 0.000576675 0)
(-0.00127835 0.000694603 0)
(-0.00168688 0.000806744 0)
(-0.00214765 0.000911791 0)
(-0.00265735 0.00100894 0)
(-0.00321232 0.00109774 0)
(-0.00380869 0.00117802 0)
(-0.00444249 0.00124979 0)
(-0.00510974 0.00131321 0)
(-0.00580647 0.0013685 0)
(-0.00652882 0.00141595 0)
(-0.007273 0.00145589 0)
(-0.00803537 0.00148863 0)
(-0.0088124 0.0015145 0)
(-0.00960068 0.00153379 0)
(-0.0103969 0.00154679 0)
(-0.011198 0.00155375 0)
(-0.0120008 0.00155488 0)
(-0.0128023 0.00155036 0)
(-0.0135997 0.00154034 0)
(-0.0143902 0.00152495 0)
(-0.0151708 0.00150427 0)
(-0.015939 0.00147836 0)
(-0.0166919 0.00144727 0)
(-0.0174269 0.00141103 0)
(-0.0181413 0.00136965 0)
(-0.0188325 0.00132314 0)
(-0.0194977 0.0012715 0)
(-0.0201345 0.00121475 0)
(-0.0207402 0.0011529 0)
(-0.0213121 0.00108599 0)
(-0.0218478 0.00101407 0)
(-0.0223448 0.000937209 0)
(-0.0228006 0.000855517 0)
(-0.0232128 0.000769126 0)
(-0.0235792 0.000678206 0)
(-0.0238976 0.000582965 0)
(-0.0241659 0.000483651 0)
(-0.0243822 0.000380557 0)
(-0.0245449 0.000274017 0)
(-0.0246522 0.000164415 0)
(-0.024703 5.21756e-05 0)
(-0.0246961 -6.22285e-05 0)
(-0.0246306 -0.000178282 0)
(-0.0245059 -0.000295426 0)
(-0.0243218 -0.000413063 0)
(-0.0240782 -0.00053056 0)
(-0.0237755 -0.000647249 0)
(-0.0234142 -0.000762434 0)
(-0.0229956 -0.000875399 0)
(-0.0225208 -0.000985408 0)
(-0.0219916 -0.00109171 0)
(-0.0214101 -0.00119357 0)
(-0.0207788 -0.00129022 0)
(-0.0201005 -0.00138094 0)
(-0.0193783 -0.00146501 0)
(-0.0186157 -0.00154174 0)
(-0.0178166 -0.00161047 0)
(-0.016985 -0.00167059 0)
(-0.0161254 -0.00172153 0)
(-0.0152425 -0.0017628 0)
(-0.0143411 -0.00179396 0)
(-0.0134263 -0.00181463 0)
(-0.0125034 -0.00182454 0)
(-0.0115776 -0.00182347 0)
(-0.0106545 -0.00181131 0)
(-0.00973951 -0.00178803 0)
(-0.00883802 -0.00175371 0)
(-0.00795545 -0.00170851 0)
(-0.00709707 -0.0016527 0)
(-0.006268 -0.00158663 0)
(-0.00547315 -0.00151079 0)
(-0.00471716 -0.00142575 0)
(-0.00400438 -0.00133216 0)
(-0.00333879 -0.00123082 0)
(-0.00272394 -0.00112261 0)
(-0.00216293 -0.00100854 0)
(-0.0016583 -0.000889729 0)
(-0.00121203 -0.000767442 0)
(-0.000825408 -0.000643102 0)
(-0.000498999 -0.000518315 0)
(-0.000232537 -0.000394911 0)
(-2.48332e-05 -0.000274995 0)
(0.000126336 -0.000161016 0)
(0.000224363 -5.58484e-05 0)
(0.000273943 3.71068e-05 0)
(0.000281238 0.000113815 0)
(0.000254018 0.00016952 0)
(0.000201791 0.000198726 0)
(0.000135838 0.000195354 0)
(6.9e-05 0.000153209 0)
(1.50416e-05 6.70159e-05 0)
(2.47391e-06 -6.03621e-05 0)
(1.25105e-06 -8.16244e-05 0)
(-2.94609e-05 -2.62153e-05 0)
(-0.00010374 8.36355e-05 0)
(-0.00023264 0.000230174 0)
(-0.000423565 0.000399642 0)
(-0.000681086 0.000581544 0)
(-0.00100741 0.000768013 0)
(-0.00140287 0.000953249 0)
(-0.00186626 0.00113306 0)
(-0.00239528 0.00130448 0)
(-0.00298672 0.0014655 0)
(-0.00363677 0.00161482 0)
(-0.00434118 0.00175168 0)
(-0.00509545 0.00187572 0)
(-0.0058949 0.00198687 0)
(-0.0067348 0.00208528 0)
(-0.00761043 0.00217122 0)
(-0.00851713 0.00224508 0)
(-0.00945034 0.00230728 0)
(-0.0104056 0.00235828 0)
(-0.0113787 0.00239852 0)
(-0.0123653 0.00242845 0)
(-0.0133614 0.00244845 0)
(-0.0143631 0.0024589 0)
(-0.0153666 0.00246011 0)
(-0.0163681 0.00245236 0)
(-0.0173641 0.00243586 0)
(-0.0183509 0.00241082 0)
(-0.0193251 0.00237735 0)
(-0.0202833 0.00233558 0)
(-0.021222 0.00228557 0)
(-0.0221378 0.00222737 0)
(-0.0230275 0.00216103 0)
(-0.0238877 0.00208656 0)
(-0.0247151 0.00200401 0)
(-0.0255065 0.00191338 0)
(-0.0262586 0.00181475 0)
(-0.0269683 0.00170817 0)
(-0.0276324 0.00159374 0)
(-0.0282478 0.0014716 0)
(-0.0288116 0.00134194 0)
(-0.0293208 0.00120497 0)
(-0.0297727 0.00106098 0)
(-0.0301646 0.000910315 0)
(-0.0304941 0.000753372 0)
(-0.0307589 0.000590622 0)
(-0.0309569 0.000422602 0)
(-0.0310862 0.000249915 0)
(-0.0311453 7.32372e-05 0)
(-0.0311329 -0.00010669 0)
(-0.0310479 -0.000289059 0)
(-0.0308898 -0.000472996 0)
(-0.0306581 -0.000657571 0)
(-0.030353 -0.000841796 0)
(-0.029975 -0.00102464 0)
(-0.0295249 -0.00120502 0)
(-0.0290039 -0.00138183 0)
(-0.0284139 -0.00155393 0)
(-0.0277569 -0.00172017 0)
(-0.0270355 -0.0018794 0)
(-0.0262529 -0.00203047 0)
(-0.0254123 -0.00217225 0)
(-0.0245178 -0.00230364 0)
(-0.0235736 -0.00242357 0)
(-0.0225843 -0.00253104 0)
(-0.021555 -0.00262512 0)
(-0.0204911 -0.00270494 0)
(-0.0193982 -0.00276973 0)
(-0.0182823 -0.00281883 0)
(-0.0171496 -0.00285167 0)
(-0.0160064 -0.00286782 0)
(-0.0148592 -0.00286697 0)
(-0.0137146 -0.00284893 0)
(-0.0125793 -0.00281369 0)
(-0.0114598 -0.00276135 0)
(-0.0103626 -0.00269217 0)
(-0.00929423 -0.00260658 0)
(-0.00826081 -0.00250515 0)
(-0.0072683 -0.00238861 0)
(-0.00632233 -0.00225785 0)
(-0.00542816 -0.00211393 0)
(-0.0045906 -0.00195806 0)
(-0.00381395 -0.00179164 0)
(-0.00310194 -0.00161622 0)
(-0.00245764 -0.00143357 0)
(-0.00188344 -0.00124566 0)
(-0.00138088 -0.00105468 0)
(-0.000950653 -0.000863112 0)
(-0.000592466 -0.000673744 0)
(-0.000304947 -0.000489755 0)
(-8.55375e-05 -0.000314785 0)
(6.96336e-05 -0.000153036 0)
(0.000165877 -9.38263e-06 0)
(0.000210077 0.000110506 0)
(0.000210826 0.000200069 0)
(0.000178538 0.000251802 0)
(0.000125509 0.000257321 0)
(6.58131e-05 0.000207583 0)
(1.46329e-05 9.33927e-05 0)
(-3.18673e-06 -5.74486e-05 0)
(-2.74891e-05 -5.23625e-05 0)
(-9.5057e-05 4.60251e-05 0)
(-0.000218992 0.000211265 0)
(-0.000409559 0.000421988 0)
(-0.000673435 0.000661388 0)
(-0.00101464 0.000916425 0)
(-0.00143496 0.00117714 0)
(-0.00193434 0.00143602 0)
(-0.00251124 0.00168755 0)
(-0.00316295 0.00192772 0)
(-0.00388587 0.00215375 0)
(-0.00467572 0.00236378 0)
(-0.00552774 0.00255668 0)
(-0.00643686 0.00273185 0)
(-0.0073978 0.0028891 0)
(-0.00840521 0.00302852 0)
(-0.0094537 0.00315045 0)
(-0.0105379 0.00325531 0)
(-0.0116527 0.00334365 0)
(-0.0127928 0.00341605 0)
(-0.0139532 0.00347308 0)
(-0.0151291 0.00351531 0)
(-0.0163156 0.00354327 0)
(-0.0175083 0.00355746 0)
(-0.0187025 0.00355829 0)
(-0.0198938 0.00354614 0)
(-0.0210781 0.00352132 0)
(-0.0222509 0.00348409 0)
(-0.0234083 0.00343464 0)
(-0.024546 0.00337313 0)
(-0.0256601 0.00329968 0)
(-0.0267465 0.00321436 0)
(-0.0278013 0.00311726 0)
(-0.0288206 0.00300842 0)
(-0.0298004 0.0028879 0)
(-0.030737 0.00275577 0)
(-0.0316264 0.00261213 0)
(-0.032465 0.00245708 0)
(-0.0332491 0.00229081 0)
(-0.0339751 0.00211353 0)
(-0.0346395 0.00192551 0)
(-0.035239 0.00172712 0)
(-0.0357702 0.00151876 0)
(-0.0362303 0.00130096 0)
(-0.0366163 0.0010743 0)
(-0.0369256 0.000839465 0)
(-0.0371558 0.000597245 0)
(-0.0373048 0.000348513 0)
(-0.0373709 9.42387e-05 0)
(-0.0373526 -0.00016451 0)
(-0.0372487 -0.000426575 0)
(-0.0370587 -0.000690711 0)
(-0.0367822 -0.000955589 0)
(-0.0364193 -0.00121981 0)
(-0.0359706 -0.0014819 0)
(-0.0354373 -0.00174033 0)
(-0.0348208 -0.00199354 0)
(-0.0341232 -0.00223991 0)
(-0.0333471 -0.00247783 0)
(-0.0324954 -0.00270567 0)
(-0.0315718 -0.0029218 0)
(-0.0305803 -0.00312463 0)
(-0.0295254 -0.00331262 0)
(-0.028412 -0.00348428 0)
(-0.0272457 -0.00363819 0)
(-0.0260323 -0.00377304 0)
(-0.0247779 -0.00388761 0)
(-0.0234893 -0.00398084 0)
(-0.0221732 -0.00405178 0)
(-0.0208368 -0.00409965 0)
(-0.0194875 -0.00412383 0)
(-0.0181329 -0.0041239 0)
(-0.0167804 -0.00409961 0)
(-0.0154378 -0.00405093 0)
(-0.0141127 -0.00397801 0)
(-0.0128127 -0.00388125 0)
(-0.0115451 -0.00376125 0)
(-0.0103172 -0.00361881 0)
(-0.00913584 -0.00345499 0)
(-0.00800748 -0.00327105 0)
(-0.00693823 -0.00306851 0)
(-0.00593365 -0.0028491 0)
(-0.00499873 -0.00261479 0)
(-0.00413777 -0.00236782 0)
(-0.00335436 -0.00211069 0)
(-0.00265124 -0.00184618 0)
(-0.00203025 -0.00157741 0)
(-0.00149224 -0.00130783 0)
(-0.00103695 -0.00104134 0)
(-0.000662948 -0.000782318 0)
(-0.000367489 -0.00053571 0)
(-0.000146426 -0.000307151 0)
(5.91069e-06 -0.000103079 0)
(9.68282e-05 6.91393e-05 0)
(0.000135387 0.000201087 0)
(0.000132514 0.000283198 0)
(0.000101074 0.000304719 0)
(5.58522e-05 0.000253699 0)
(1.27771e-05 0.000117131 0)
(-9.5155e-06 -4.32241e-05 0)
(-5.95953e-05 6.6883e-06 0)
(-0.000168172 0.000163476 0)
(-0.000346928 0.000397458 0)
(-0.000604858 0.000684294 0)
(-0.000947466 0.00100455 0)
(-0.00137785 0.00134292 0)
(-0.00189706 0.00168749 0)
(-0.00250444 0.00202919 0)
(-0.00319794 0.00236115 0)
(-0.00397438 0.00267837 0)
(-0.00482971 0.00297726 0)
(-0.00575916 0.00325539 0)
(-0.0067575 0.00351119 0)
(-0.00781915 0.00374382 0)
(-0.0089383 0.00395292 0)
(-0.010109 0.00413853 0)
(-0.0113254 0.00430097 0)
(-0.0125814 0.00444075 0)
(-0.0138713 0.00455849 0)
(-0.0151892 0.00465489 0)
(-0.0165296 0.00473065 0)
(-0.0178868 0.00478648 0)
(-0.0192556 0.00482303 0)
(-0.0206306 0.00484092 0)
(-0.0220068 0.0048407 0)
(-0.023379 0.00482283 0)
(-0.0247424 0.00478771 0)
(-0.0260921 0.00473569 0)
(-0.0274233 0.00466702 0)
(-0.0287314 0.00458192 0)
(-0.0300117 0.00448056 0)
(-0.0312596 0.00436306 0)
(-0.0324706 0.00422954 0)
(-0.0336402 0.00408008 0)
(-0.0347639 0.00391479 0)
(-0.0358373 0.00373378 0)
(-0.0368562 0.00353721 0)
(-0.0378162 0.00332528 0)
(-0.0387131 0.00309822 0)
(-0.039543 0.00285637 0)
(-0.0403018 0.00260013 0)
(-0.0409858 0.00232999 0)
(-0.0415914 0.00204656 0)
(-0.0421151 0.00175054 0)
(-0.0425539 0.00144275 0)
(-0.0429046 0.00112413 0)
(-0.0431648 0.000795744 0)
(-0.0433321 0.000458792 0)
(-0.0434046 0.000114585 0)
(-0.0433806 -0.000235437 0)
(-0.043259 -0.000589714 0)
(-0.0430391 -0.000946572 0)
(-0.0427205 -0.00130423 0)
(-0.0423036 -0.00166082 0)
(-0.041789 -0.00201437 0)
(-0.0411779 -0.00236284 0)
(-0.0404723 -0.00270415 0)
(-0.0396744 -0.00303616 0)
(-0.0387871 -0.00335671 0)
(-0.0378138 -0.00366363 0)
(-0.0367587 -0.00395478 0)
(-0.0356263 -0.00422805 0)
(-0.0344216 -0.00448138 0)
(-0.0331503 -0.0047128 0)
(-0.0318185 -0.00492045 0)
(-0.0304328 -0.00510257 0)
(-0.0290001 -0.00525757 0)
(-0.027528 -0.00538403 0)
(-0.0260239 -0.00548069 0)
(-0.0244961 -0.00554654 0)
(-0.0229528 -0.00558075 0)
(-0.0214024 -0.00558277 0)
(-0.0198534 -0.00555227 0)
(-0.0183144 -0.00548921 0)
(-0.016794 -0.00539382 0)
(-0.0153007 -0.00526661 0)
(-0.0138428 -0.00510838 0)
(-0.0124283 -0.00492023 0)
(-0.011065 -0.00470356 0)
(-0.00976019 -0.00446008 0)
(-0.00852067 -0.00419179 0)
(-0.00735273 -0.00390103 0)
(-0.00626198 -0.00359044 0)
(-0.0052533 -0.00326299 0)
(-0.00433072 -0.00292203 0)
(-0.0034974 -0.00257125 0)
(-0.00275548 -0.00221477 0)
(-0.00210601 -0.00185716 0)
(-0.00154887 -0.0015035 0)
(-0.00108265 -0.00115945 0)
(-0.000704567 -0.000831362 0)
(-0.000410381 -0.00052637 0)
(-0.000194269 -0.000252519 0)
(-4.87445e-05 -1.89046e-05 0)
(3.54488e-05 0.000164189 0)
(6.94383e-05 0.000285146 0)
(6.62895e-05 0.000330884 0)
(4.10674e-05 0.000286687 0)
(9.92547e-06 0.000136169 0)
(-1.61879e-05 -1.68482e-05 0)
(-9.355e-05 9.78967e-05 0)
(-0.000245701 0.000329715 0)
(-0.000482679 0.000646591 0)
(-0.000811907 0.00102186 0)
(-0.00123739 0.00143393 0)
(-0.00176102 0.00186553 0)
(-0.00238285 0.00230307 0)
(-0.00310142 0.00273601 0)
(-0.00391402 0.00315629 0)
(-0.00481689 0.00355792 0)
(-0.00580545 0.00393656 0)
(-0.00687445 0.00428917 0)
(-0.00801816 0.0046138 0)
(-0.00923051 0.0049093 0)
(-0.0105052 0.00517514 0)
(-0.0118358 0.0054113 0)
(-0.0132158 0.00561807 0)
(-0.0146388 0.00579601 0)
(-0.0160984 0.00594583 0)
(-0.0175882 0.00606831 0)
(-0.019102 0.0061643 0)
(-0.0206338 0.00623462 0)
(-0.0221775 0.00628007 0)
(-0.0237274 0.00630137 0)
(-0.0252777 0.00629919 0)
(-0.0268229 0.0062741 0)
(-0.0283574 0.00622661 0)
(-0.0298758 0.00615713 0)
(-0.0313728 0.00606599 0)
(-0.0328431 0.00595348 0)
(-0.0342815 0.00581982 0)
(-0.0356829 0.00566518 0)
(-0.0370423 0.00548973 0)
(-0.0383545 0.00529361 0)
(-0.0396147 0.00507698 0)
(-0.0408179 0.00484001 0)
(-0.0419593 0.00458294 0)
(-0.0430342 0.00430605 0)
(-0.0440379 0.00400969 0)
(-0.0449661 0.00369431 0)
(-0.0458142 0.00336047 0)
(-0.0465782 0.00300883 0)
(-0.047254 0.00264019 0)
(-0.047838 0.00225549 0)
(-0.0483267 0.00185581 0)
(-0.0487168 0.00144239 0)
(-0.0490056 0.0010166 0)
(-0.0491904 0.000580005 0)
(-0.0492693 0.000134298 0)
(-0.0492404 -0.00031866 0)
(-0.0491026 -0.000776863 0)
(-0.0488551 -0.00123816 0)
(-0.0484977 -0.00170027 0)
(-0.0480306 -0.0021608 0)
(-0.0474546 -0.00261722 0)
(-0.0467713 -0.00306696 0)
(-0.0459826 -0.00350733 0)
(-0.0450911 -0.00393561 0)
(-0.0441001 -0.00434907 0)
(-0.0430134 -0.00474495 0)
(-0.0418353 -0.00512051 0)
(-0.040571 -0.00547308 0)
(-0.0392261 -0.00580004 0)
(-0.0378068 -0.0060989 0)
(-0.0363196 -0.00636729 0)
(-0.034772 -0.00660298 0)
(-0.0331715 -0.00680395 0)
(-0.0315263 -0.0069684 0)
(-0.0298449 -0.00709474 0)
(-0.028136 -0.00718167 0)
(-0.0264087 -0.00722816 0)
(-0.0246723 -0.00723348 0)
(-0.0229362 -0.00719725 0)
(-0.0212098 -0.00711941 0)
(-0.0195025 -0.00700024 0)
(-0.0178237 -0.0068404 0)
(-0.0161824 -0.00664092 0)
(-0.0145876 -0.00640321 0)
(-0.0130477 -0.00612905 0)
(-0.0115708 -0.00582062 0)
(-0.0101645 -0.0054805 0)
(-0.00883571 -0.00511164 0)
(-0.00759062 -0.00471745 0)
(-0.00643465 -0.0043017 0)
(-0.00537235 -0.00386865 0)
(-0.00440727 -0.003423 0)
(-0.00354189 -0.00296994 0)
(-0.00277754 -0.00251521 0)
(-0.00211429 -0.00206518 0)
(-0.00155088 -0.00162686 0)
(-0.00108462 -0.00120805 0)
(-0.000711308 -0.000817421 0)
(-0.000425152 -0.00046465 0)
(-0.000218682 -0.000160561 0)
(-8.267e-05 8.2716e-05 0)
(-6.04086e-06 0.000251574 0)
(2.41745e-05 0.00033073 0)
(2.29853e-05 0.000302975 0)
(6.41667e-06 0.000149084 0)
(-2.30002e-05 2.20877e-05 0)
(-0.00012836 0.000222609 0)
(-0.000325523 0.000546957 0)
(-0.000622802 0.00096153 0)
(-0.00102588 0.00143794 0)
(-0.00153706 0.00195289 0)
(-0.00215678 0.00248753 0)
(-0.00288391 0.00302682 0)
(-0.00371602 0.00355895 0)
(-0.00464959 0.0040748 0)
(-0.00568018 0.0045675 0)
(-0.0068026 0.00503199 0)
(-0.00801107 0.0054647 0)
(-0.00929934 0.00586327 0)
(-0.0106609 0.00622626 0)
(-0.0120888 0.00655301 0)
(-0.0135764 0.00684336 0)
(-0.0151165 0.00709762 0)
(-0.0167023 0.00731637 0)
(-0.0183269 0.00750038 0)
(-0.0199833 0.00765056 0)
(-0.021665 0.00776784 0)
(-0.0233653 0.00785319 0)
(-0.0250777 0.00790752 0)
(-0.0267959 0.00793168 0)
(-0.0285136 0.00792645 0)
(-0.0302247 0.00789251 0)
(-0.0319232 0.00783046 0)
(-0.0336032 0.0077408 0)
(-0.0352587 0.00762394 0)
(-0.0368841 0.00748023 0)
(-0.0384736 0.00730996 0)
(-0.0400216 0.00711336 0)
(-0.0415225 0.00689064 0)
(-0.0429708 0.00664203 0)
(-0.044361 0.00636774 0)
(-0.0456879 0.00606803 0)
(-0.0469461 0.00574321 0)
(-0.0481304 0.00539368 0)
(-0.049236 0.0050199 0)
(-0.0502578 0.00462249 0)
(-0.0511911 0.00420216 0)
(-0.0520314 0.00375978 0)
(-0.0527745 0.00329637 0)
(-0.0534162 0.00281313 0)
(-0.0539529 0.00231143 0)
(-0.0543811 0.00179282 0)
(-0.0546977 0.00125906 0)
(-0.0549001 0.000712079 0)
(-0.054986 0.000154007 0)
(-0.0549536 -0.00041284 0)
(-0.0548016 -0.000985967 0)
(-0.0545292 -0.00156271 0)
(-0.0541363 -0.00214023 0)
(-0.053623 -0.00271557 0)
(-0.0529905 -0.00328561 0)
(-0.0522402 -0.00384717 0)
(-0.0513743 -0.00439693 0)
(-0.0503958 -0.00493155 0)
(-0.049308 -0.00544765 0)
(-0.0481152 -0.00594184 0)
(-0.0468221 -0.00641076 0)
(-0.0454342 -0.00685111 0)
(-0.0439576 -0.00725968 0)
(-0.0423989 -0.0076334 0)
(-0.0407654 -0.00796934 0)
(-0.0390649 -0.00826479 0)
(-0.0373057 -0.00851725 0)
(-0.0354965 -0.00872449 0)
(-0.0336465 -0.00888458 0)
(-0.0317653 -0.0089959 0)
(-0.0298625 -0.00905719 0)
(-0.0279483 -0.00906756 0)
(-0.0260328 -0.00902652 0)
(-0.0241261 -0.00893399 0)
(-0.0222386 -0.00879033 0)
(-0.0203802 -0.00859635 0)
(-0.018561 -0.00835331 0)
(-0.0167904 -0.00806294 0)
(-0.0150779 -0.00772746 0)
(-0.0134321 -0.00734954 0)
(-0.0118614 -0.00693236 0)
(-0.0103732 -0.00647959 0)
(-0.00897438 -0.00599538 0)
(-0.00767093 -0.00548442 0)
(-0.00646787 -0.00495192 0)
(-0.0053692 -0.00440363 0)
(-0.00437779 -0.00384591 0)
(-0.0034953 -0.00328574 0)
(-0.00272209 -0.00273078 0)
(-0.00205713 -0.00218947 0)
(-0.00149793 -0.00167109 0)
(-0.00104048 -0.00118586 0)
(-0.000679146 -0.000745113 0)
(-0.000406649 -0.000361366 0)
(-0.000213968 -4.8546e-05 0)
(-9.02833e-05 0.000177845 0)
(-2.29525e-05 0.000300503 0)
(2.74384e-06 0.000300041 0)
(2.49454e-06 0.00015494 0)
(-2.98263e-05 7.37153e-05 0)
(-0.000163386 0.000381464 0)
(-0.000406204 0.000816412 0)
(-0.000764888 0.00134398 0)
(-0.00124331 0.0019346 0)
(-0.00184191 0.00256369 0)
(-0.00255956 0.00321114 0)
(-0.00339376 0.00386078 0)
(-0.004341 0.00449972 0)
(-0.0053968 0.00511796 0)
(-0.00655595 0.00570785 0)
(-0.00781257 0.0062637 0)
(-0.00916029 0.00678148 0)
(-0.0105923 0.00725845 0)
(-0.0121016 0.00769292 0)
(-0.0136809 0.00808407 0)
(-0.0153229 0.00843167 0)
(-0.01702 0.00873599 0)
(-0.018765 0.00899766 0)
(-0.0205504 0.00921752 0)
(-0.022369 0.00939655 0)
(-0.0242136 0.00953582 0)
(-0.0260771 0.0096364 0)
(-0.0279526 0.00969932 0)
(-0.0298333 0.00972556 0)
(-0.0317124 0.00971601 0)
(-0.0335834 0.00967145 0)
(-0.0354397 0.00959257 0)
(-0.037275 0.00947997 0)
(-0.0390828 0.00933414 0)
(-0.040857 0.0091555 0)
(-0.0425914 0.0089444 0)
(-0.0442799 0.00870115 0)
(-0.0459165 0.00842602 0)
(-0.0474952 0.0081193 0)
(-0.0490101 0.00778129 0)
(-0.0504555 0.00741235 0)
(-0.0518257 0.00701287 0)
(-0.0531151 0.00658338 0)
(-0.0543183 0.0061245 0)
(-0.0554301 0.00563699 0)
(-0.0564454 0.00512175 0)
(-0.0573594 0.00457989 0)
(-0.0581675 0.00401268 0)
(-0.0588653 0.00342159 0)
(-0.0594489 0.00280831 0)
(-0.0599146 0.00217476 0)
(-0.0602592 0.00152306 0)
(-0.0604798 0.000855588 0)
(-0.060574 0.000174921 0)
(-0.0605399 -0.000516131 0)
(-0.0603762 -0.00121455 0)
(-0.0600821 -0.0019171 0)
(-0.0596572 -0.00262038 0)
(-0.0591021 -0.0033208 0)
(-0.0584177 -0.00401464 0)
(-0.0576056 -0.00469803 0)
(-0.0566684 -0.00536701 0)
(-0.0556089 -0.00601755 0)
(-0.054431 -0.0066456 0)
(-0.0531391 -0.00724709 0)
(-0.0517382 -0.00781798 0)
(-0.0502342 -0.00835432 0)
(-0.0486336 -0.00885226 0)
(-0.0469434 -0.00930809 0)
(-0.0451714 -0.00971833 0)
(-0.043326 -0.0100797 0)
(-0.0414158 -0.0103892 0)
(-0.0394504 -0.0106442 0)
(-0.0374395 -0.0108423 0)
(-0.0353931 -0.0109816 0)
(-0.0333219 -0.0110605 0)
(-0.0312365 -0.011078 0)
(-0.0291477 -0.0110336 0)
(-0.0270665 -0.0109269 0)
(-0.0250039 -0.0107586 0)
(-0.0229706 -0.0105296 0)
(-0.0209773 -0.0102414 0)
(-0.0190345 -0.00989594 0)
(-0.0171519 -0.00949602 0)
(-0.0153392 -0.00904482 0)
(-0.0136053 -0.00854613 0)
(-0.0119582 -0.00800436 0)
(-0.0104055 -0.00742449 0)
(-0.00895379 -0.00681214 0)
(-0.00760849 -0.00617352 0)
(-0.00637414 -0.00551551 0)
(-0.00525405 -0.00484565 0)
(-0.00425028 -0.00417221 0)
(-0.00336353 -0.00350423 0)
(-0.00259313 -0.00285155 0)
(-0.00193687 -0.00222499 0)
(-0.00139105 -0.00163632 0)
(-0.000950322 -0.00109849 0)
(-0.000607725 -0.000625711 0)
(-0.000354595 -0.000233623 0)
(-0.000180527 6.04925e-05 0)
(-7.33692e-05 0.000237504 0)
(-1.88363e-05 0.000276168 0)
(-1.66993e-06 0.000153152 0)
(-3.65894e-05 0.000137992 0)
(-0.00019822 0.000574615 0)
(-0.000486788 0.00113857 0)
(-0.000907263 0.00179479 0)
(-0.00146169 0.00251294 0)
(-0.0021486 0.00326758 0)
(-0.00296516 0.00403769 0)
(-0.00390745 0.00480618 0)
(-0.00497069 0.00555937 0)
(-0.00614941 0.0062865 0)
(-0.00743749 0.0069793 0)
(-0.00882834 0.00763159 0)
(-0.0103149 0.0082389 0)
(-0.0118899 0.0087982 0)
(-0.0135456 0.0093076 0)
(-0.0152744 0.00976612 0)
(-0.0170684 0.0101735 0)
(-0.0189197 0.01053 0)
(-0.0208207 0.0108362 0)
(-0.0227633 0.0110931 0)
(-0.02474 0.0113018 0)
(-0.0267432 0.0114634 0)
(-0.0287654 0.0115791 0)
(-0.0307991 0.0116501 0)
(-0.0328372 0.0116774 0)
(-0.0348725 0.0116621 0)
(-0.0368979 0.0116051 0)
(-0.0389066 0.0115071 0)
(-0.0408916 0.0113687 0)
(-0.0428463 0.0111907 0)
(-0.044764 0.0109735 0)
(-0.046638 0.0107174 0)
(-0.0484618 0.010423 0)
(-0.050229 0.0100905 0)
(-0.0519333 0.00972028 0)
(-0.0535684 0.00931277 0)
(-0.0551281 0.00886839 0)
(-0.0566063 0.00838769 0)
(-0.0579972 0.00787131 0)
(-0.0592949 0.00732002 0)
(-0.060494 0.00673477 0)
(-0.061589 0.00611669 0)
(-0.0625747 0.0054671 0)
(-0.0634464 0.00478755 0)
(-0.0641995 0.00407983 0)
(-0.0648297 0.00334597 0)
(-0.0653331 0.00258825 0)
(-0.0657064 0.00180923 0)
(-0.0659464 0.00101173 0)
(-0.0660508 0.000198805 0)
(-0.0660174 -0.000626199 0)
(-0.0658449 -0.00145971 0)
(-0.0655324 -0.0022979 0)
(-0.0650796 -0.00313676 0)
(-0.064487 -0.00397204 0)
(-0.0637556 -0.00479935 0)
(-0.0628872 -0.00561415 0)
(-0.0618842 -0.00641176 0)
(-0.0607499 -0.00718745 0)
(-0.0594881 -0.00793643 0)
(-0.0581036 -0.00865393 0)
(-0.0566017 -0.00933519 0)
(-0.0549885 -0.00997556 0)
(-0.0532709 -0.0105705 0)
(-0.0514563 -0.0111157 0)
(-0.0495528 -0.011607 0)
(-0.0475693 -0.0120405 0)
(-0.0455151 -0.0124128 0)
(-0.0434001 -0.0127206 0)
(-0.0412345 -0.0129612 0)