/*--------------------------------*- C++ -*----------------------------------*\
| =========                 |                                                 |
| \\      /  F ield         | OpenFOAM: The Open Source CFD Toolbox           |
|  \\    /   O peration     | Version:  4.1                                   |
|   \\  /    A nd           | Web:      www.OpenFOAM.org                      |
|    \\/     M anipulation  |                                                 |
\*---------------------------------------------------------------------------*/
FoamFile
{
    version     2.0;
    format      ascii;
    class       volVectorField;
    location    "0.018";
    object      U;
}
// * * * * * * * * * * * * * * * * * * * * * * * * * * * * * * * * * * * * * //

dimensions      [0 1 -1 0 0 0 0];

internalField   nonuniform List<vector> 
6400
(
(4.57372e-06 -4.55461e-06 0)
(1.53539e-05 -3.93864e-06 0)
(1.97963e-05 2.03345e-06 0)
(1.38598e-05 1.15097e-05 0)
(-4.74802e-06 2.28496e-05 0)
(-3.69608e-05 3.49239e-05 0)
(-8.28362e-05 4.69807e-05 0)
(-0.000141859 5.85316e-05 0)
(-0.000213152 6.92682e-05 0)
(-0.000295625 7.90044e-05 0)
(-0.000388062 8.76376e-05 0)
(-0.000489197 9.51225e-05 0)
(-0.000597748 0.000101452 0)
(-0.000712453 0.000106644 0)
(-0.000832086 0.000110736 0)
(-0.000955473 0.000113772 0)
(-0.00108149 0.000115807 0)
(-0.0012091 0.000116898 0)
(-0.00133729 0.000117104 0)
(-0.00146515 0.000116483 0)
(-0.00159181 0.000115096 0)
(-0.00171648 0.000112998 0)
(-0.00183843 0.000110245 0)
(-0.00195698 0.00010689 0)
(-0.00207151 0.000102984 0)
(-0.00218145 9.85732e-05 0)
(-0.00228629 9.37039e-05 0)
(-0.00238557 8.84183e-05 0)
(-0.00247885 8.2756e-05 0)
(-0.00256575 7.67545e-05 0)
(-0.00264593 7.04488e-05 0)
(-0.00271909 6.38718e-05 0)
(-0.00278496 5.70546e-05 0)
(-0.00284328 5.00265e-05 0)
(-0.00289385 4.28154e-05 0)
(-0.0029365 3.5448e-05 0)
(-0.00297107 2.79499e-05 0)
(-0.00299743 2.03462e-05 0)
(-0.00301548 1.26614e-05 0)
(-0.00302516 4.91967e-06 0)
(-0.0030264 -2.85454e-06 0)
(-0.0030192 -1.06367e-05 0)
(-0.00300356 -1.84016e-05 0)
(-0.0029795 -2.61234e-05 0)
(-0.0029471 -3.37754e-05 0)
(-0.00290643 -4.13295e-05 0)
(-0.00285761 -4.87562e-05 0)
(-0.00280081 -5.60247e-05 0)
(-0.0027362 -6.31021e-05 0)
(-0.002664 -6.99538e-05 0)
(-0.00258448 -7.65431e-05 0)
(-0.00249793 -8.28311e-05 0)
(-0.00240469 -8.87765e-05 0)
(-0.00230517 -9.43358e-05 0)
(-0.00219978 -9.94632e-05 0)
(-0.00208902 -0.00010411 0)
(-0.00197344 -0.000108227 0)
(-0.00185361 -0.00011176 0)
(-0.00173021 -0.000114655 0)
(-0.00160394 -0.000116855 0)
(-0.00147559 -0.000118304 0)
(-0.00134598 -0.000118941 0)
(-0.00121603 -0.000118708 0)
(-0.00108671 -0.000117548 0)
(-0.000959055 -0.000115402 0)
(-0.000834156 -0.000112218 0)
(-0.00071317 -0.000107947 0)
(-0.000597305 -0.000102549 0)
(-0.000487809 -9.59962e-05 0)
(-0.000385962 -8.82785e-05 0)
(-0.00029305 -7.94124e-05 0)
(-0.000210339 -6.94541e-05 0)
(-0.000139028 -5.8517e-05 0)
(-8.01838e-05 -4.6798e-05 0)
(-3.46461e-05 -3.46167e-05 0)
(-2.8835e-06 -2.2471e-05 0)
(1.52171e-05 -1.11211e-05 0)
(2.06508e-05 -1.7004e-06 0)
(1.57707e-05 4.15575e-06 0)
(4.66722e-06 4.63203e-06 0)
(4.03336e-06 -1.53242e-05 0)
(1.2136e-05 -1.18515e-05 0)
(2.27074e-06 1.47432e-05 0)
(-3.47485e-05 5.49807e-05 0)
(-0.000104415 0.000102319 0)
(-0.000209155 0.000152359 0)
(-0.000349325 0.000202167 0)
(-0.000523842 0.000249825 0)
(-0.000730665 0.000294109 0)
(-0.000967133 0.000334272 0)
(-0.00123021 0.000369896 0)
(-0.00151664 0.000400789 0)
(-0.00182311 0.000426915 0)
(-0.00214629 0.000448342 0)
(-0.0024829 0.000465209 0)
(-0.0028298 0.000477704 0)
(-0.00318394 0.000486041 0)
(-0.00354244 0.000490454 0)
(-0.00390258 0.000491184 0)
(-0.0042618 0.000488476 0)
(-0.00461772 0.00048257 0)
(-0.00496812 0.000473703 0)
(-0.00531093 0.000462105 0)
(-0.00564426 0.000447996 0)
(-0.00596636 0.000431583 0)
(-0.00627563 0.000413068 0)
(-0.00657062 0.000392636 0)
(-0.00684999 0.000370466 0)
(-0.00711253 0.000346722 0)
(-0.00735716 0.000321562 0)
(-0.0075829 0.000295132 0)
(-0.00778887 0.000267569 0)
(-0.00797429 0.000239003 0)
(-0.00813848 0.000209557 0)
(-0.00828084 0.000179348 0)
(-0.00840085 0.000148487 0)
(-0.00849809 0.000117082 0)
(-0.00857219 8.52367e-05 0)
(-0.00862287 5.30542e-05 0)
(-0.00864992 2.06362e-05 0)
(-0.00865322 -1.19159e-05 0)
(-0.00863271 -4.44991e-05 0)
(-0.00858841 -7.70087e-05 0)
(-0.00852041 -0.000109337 0)
(-0.00842889 -0.000141371 0)
(-0.00831411 -0.000172995 0)
(-0.00817643 -0.000204086 0)
(-0.00801627 -0.000234515 0)
(-0.00783417 -0.000264145 0)
(-0.00763077 -0.000292832 0)
(-0.00740682 -0.000320424 0)
(-0.00716316 -0.000346757 0)
(-0.00690079 -0.000371661 0)
(-0.0066208 -0.000394955 0)
(-0.00632444 -0.000416448 0)
(-0.00601307 -0.000435938 0)
(-0.00568824 -0.000453217 0)
(-0.00535161 -0.000468065 0)
(-0.00500502 -0.000480256 0)
(-0.00465048 -0.000489554 0)
(-0.00429015 -0.000495722 0)
(-0.00392638 -0.000498517 0)
(-0.00356166 -0.000497694 0)
(-0.00319867 -0.000493015 0)
(-0.00284024 -0.000484246 0)
(-0.00248938 -0.000471169 0)
(-0.0021492 -0.000453588 0)
(-0.00182294 -0.000431343 0)
(-0.00151395 -0.000404324 0)
(-0.00122557 -0.000372497 0)
(-0.000961169 -0.000335938 0)
(-0.000723972 -0.000294879 0)
(-0.000516986 -0.000249783 0)
(-0.000342809 -0.00020144 0)
(-0.000203393 -0.000151116 0)
(-9.97051e-05 -0.00010077 0)
(-3.12577e-05 -5.33632e-05 0)
(4.52227e-06 -1.33147e-05 0)
(1.32726e-05 1.28446e-05 0)
(4.302e-06 1.57031e-05 0)
(-1.82061e-06 -1.98877e-05 0)
(-1.39814e-05 -2.04135e-06 0)
(-5.61036e-05 5.71467e-05 0)
(-0.000139656 0.000141015 0)
(-0.000271878 0.000237876 0)
(-0.000456131 0.000339661 0)
(-0.000693022 0.000440862 0)
(-0.00098115 0.000537783 0)
(-0.0013177 0.000628002 0)
(-0.00169891 0.000709997 0)
(-0.00212038 0.000782881 0)
(-0.00257737 0.000846211 0)
(-0.00306494 0.000899862 0)
(-0.00357809 0.000943926 0)
(-0.00411189 0.000978646 0)
(-0.00466151 0.00100437 0)
(-0.00522232 0.00102151 0)
(-0.00578985 0.00103053 0)
(-0.00635988 0.0010319 0)
(-0.00692844 0.00102611 0)
(-0.00749179 0.00101366 0)
(-0.00804644 0.000995024 0)
(-0.00858914 0.000970672 0)
(-0.00911691 0.000941056 0)
(-0.00962698 0.00090661 0)
(-0.0101168 0.000867744 0)
(-0.0105841 0.00082485 0)
(-0.0110266 0.000778297 0)
(-0.0114426 0.000728432 0)
(-0.0118302 0.000675581 0)
(-0.012188 0.000620053 0)
(-0.0125143 0.000562137 0)
(-0.0128082 0.000502107 0)
(-0.0130684 0.000440221 0)
(-0.0132939 0.000376727 0)
(-0.013484 0.000311859 0)
(-0.013638 0.000245847 0)
(-0.0137553 0.00017891 0)
(-0.0138354 0.000111266 0)
(-0.0138781 4.31311e-05 0)
(-0.013883 -2.52804e-05 0)
(-0.0138502 -9.37507e-05 0)
(-0.0137797 -0.000162058 0)
(-0.0136716 -0.000229974 0)
(-0.0135262 -0.000297263 0)
(-0.013344 -0.000363679 0)
(-0.0131255 -0.000428963 0)
(-0.0128714 -0.000492843 0)
(-0.0125826 -0.000555034 0)
(-0.0122601 -0.000615232 0)
(-0.0119051 -0.000673117 0)
(-0.011519 -0.000728349 0)
(-0.0111033 -0.000780572 0)
(-0.0106598 -0.000829407 0)
(-0.0101905 -0.000874456 0)
(-0.00969763 -0.000915304 0)
(-0.00918351 -0.000951514 0)
(-0.00865085 -0.000982635 0)
(-0.00810253 -0.0010082 0)
(-0.00754172 -0.00102772 0)
(-0.00697182 -0.00104072 0)
(-0.00639648 -0.00104669 0)
(-0.00581961 -0.00104515 0)
(-0.00524538 -0.00103561 0)
(-0.00467818 -0.00101762 0)
(-0.0041226 -0.000990737 0)
(-0.00358345 -0.000954596 0)
(-0.00306566 -0.000908899 0)
(-0.00257426 -0.000853462 0)
(-0.0021143 -0.000788262 0)
(-0.00169075 -0.000713503 0)
(-0.00130835 -0.000629709 0)
(-0.000971436 -0.000537854 0)
(-0.000683689 -0.000439545 0)
(-0.000447793 -0.000337287 0)
(-0.00026499 -0.000234852 0)
(-0.000134486 -0.000137808 0)
(-5.27131e-05 -5.42597e-05 0)
(-1.22294e-05 4.10799e-06 0)
(-1.38712e-06 2.07061e-05 0)
(-1.11431e-05 -1.42861e-05 0)
(-5.35977e-05 3.4518e-05 0)
(-0.000138909 0.000140516 0)
(-0.000279027 0.000281328 0)
(-0.00048168 0.000440667 0)
(-0.000750452 0.00060691 0)
(-0.00108589 0.000771883 0)
(-0.00148622 0.000929945 0)
(-0.00194803 0.0010773 0)
(-0.00246667 0.00121148 0)
(-0.00303672 0.00133099 0)
(-0.00365225 0.00143504 0)
(-0.00430703 0.00152335 0)
(-0.00499473 0.00159598 0)
(-0.00570905 0.00165326 0)
(-0.00644378 0.00169571 0)
(-0.00719292 0.00172395 0)
(-0.00795068 0.00173871 0)
(-0.00871155 0.00174073 0)
(-0.0094703 0.00173081 0)
(-0.010222 0.00170973 0)
(-0.0109621 0.00167829 0)
(-0.0116863 0.00163725 0)
(-0.0123906 0.00158735 0)
(-0.0130713 0.00152931 0)
(-0.0137251 0.00146381 0)
(-0.0143488 0.00139152 0)
(-0.0149395 0.00131303 0)
(-0.0154948 0.00122895 0)
(-0.0160123 0.0011398 0)
(-0.0164899 0.00104613 0)
(-0.0169256 0.000948402 0)
(-0.0173179 0.000847094 0)
(-0.0176653 0.000742641 0)
(-0.0179663 0.000635463 0)
(-0.0182201 0.000525959 0)
(-0.0184255 0.000414518 0)
(-0.0185819 0.000301516 0)
(-0.0186886 0.000187322 0)
(-0.0187453 7.23031e-05 0)
(-0.0187516 -4.31738e-05 0)
(-0.0187075 -0.000158739 0)
(-0.0186129 -0.000274015 0)
(-0.0184682 -0.000388615 0)
(-0.0182737 -0.000502137 0)
(-0.01803 -0.000614165 0)
(-0.0177379 -0.00072426 0)
(-0.0173984 -0.000831965 0)
(-0.0170125 -0.000936794 0)
(-0.0165817 -0.00103824 0)
(-0.0161076 -0.00113576 0)
(-0.0155921 -0.00122878 0)
(-0.0150372 -0.00131671 0)
(-0.0144453 -0.00139892 0)
(-0.0138191 -0.00147473 0)
(-0.0131615 -0.00154345 0)
(-0.0124757 -0.00160437 0)
(-0.0117652 -0.00165672 0)
(-0.011034 -0.00169975 0)
(-0.0102861 -0.00173265 0)
(-0.00952609 -0.00175462 0)
(-0.00875876 -0.00176486 0)
(-0.00798926 -0.00176257 0)
(-0.00722302 -0.00174699 0)
(-0.00646578 -0.00171738 0)
(-0.0057235 -0.00167307 0)
(-0.00500237 -0.00161349 0)
(-0.00430875 -0.00153823 0)
(-0.00364906 -0.00144704 0)
(-0.00302971 -0.00133997 0)
(-0.00245694 -0.00121743 0)
(-0.00193669 -0.00108033 0)
(-0.00147432 -0.000930326 0)
(-0.00107436 -0.000769998 0)
(-0.000740078 -0.000603282 0)
(-0.000473047 -0.000435939 0)
(-0.000272493 -0.000276238 0)
(-0.000134581 -0.000135867 0)
(-5.13328e-05 -3.11259e-05 0)
(-1.05703e-05 1.56613e-05 0)
(-2.23445e-05 3.73764e-06 0)
(-0.000100398 0.000103302 0)
(-0.000234963 0.00027214 0)
(-0.000437487 0.000483782 0)
(-0.000715304 0.000718242 0)
(-0.00107158 0.000960777 0)
(-0.00150642 0.00120071 0)
(-0.00201753 0.00143048 0)
(-0.00260083 0.00164483 0)
(-0.00325094 0.00184028 0)
(-0.00396154 0.00201465 0)
(-0.00472574 0.00216669 0)
(-0.00553627 0.00229591 0)
(-0.0063857 0.0024023 0)
(-0.00726658 0.00248626 0)
(-0.00817156 0.00254845 0)
(-0.00909349 0.00258974 0)
(-0.0100254 0.0026111 0)
(-0.0109608 0.00261361 0)
(-0.0118933 0.00259838 0)
(-0.0128169 0.00256657 0)
(-0.0137262 0.00251929 0)
(-0.0146158 0.00245767 0)
(-0.0154809 0.00238281 0)
(-0.0163171 0.00229575 0)
(-0.0171202 0.00219751 0)
(-0.0178863 0.00208904 0)
(-0.0186121 0.00197128 0)
(-0.0192943 0.00184508 0)
(-0.01993 0.00171127 0)
(-0.0205167 0.00157063 0)
(-0.021052 0.00142388 0)
(-0.0215339 0.00127174 0)
(-0.0219606 0.00111485 0)
(-0.0223304 0.000953855 0)
(-0.022642 0.000789355 0)
(-0.0228942 0.000621937 0)
(-0.0230861 0.000452172 0)
(-0.023217 0.000280619 0)
(-0.0232863 0.000107834 0)
(-0.0232937 -6.5629e-05 0)
(-0.0232391 -0.000239209 0)
(-0.0231226 -0.000412335 0)
(-0.0229444 -0.000584423 0)
(-0.022705 -0.000754867 0)
(-0.0224053 -0.000923036 0)
(-0.022046 -0.00108827 0)
(-0.0216285 -0.00124989 0)
(-0.0211541 -0.00140715 0)
(-0.0206246 -0.0015593 0)
(-0.0200421 -0.00170553 0)
(-0.0194086 -0.00184498 0)
(-0.018727 -0.00197676 0)
(-0.018 -0.00209993 0)
(-0.0172309 -0.0022135 0)
(-0.0164233 -0.00231644 0)
(-0.0155812 -0.00240768 0)
(-0.0147088 -0.00248612 0)
(-0.0138109 -0.00255062 0)
(-0.0128926 -0.00260001 0)
(-0.0119592 -0.00263314 0)
(-0.0110167 -0.00264884 0)
(-0.0100713 -0.00264596 0)
(-0.00912938 -0.00262341 0)
(-0.00819794 -0.00258016 0)
(-0.00728409 -0.00251528 0)
(-0.00639521 -0.00242802 0)
(-0.0055388 -0.00231782 0)
(-0.00472247 -0.00218444 0)
(-0.00395372 -0.00202803 0)
(-0.00323986 -0.00184928 0)
(-0.00258779 -0.00164961 0)
(-0.00200375 -0.00143139 0)
(-0.00149301 -0.00119832 0)
(-0.00105945 -0.000955814 0)
(-0.000705159 -0.000711623 0)
(-0.000429768 -0.000476559 0)
(-0.000229821 -0.000265463 0)
(-9.76874e-05 -9.83655e-05 0)
(-2.16508e-05 -1.70518e-06 0)
(-3.43688e-05 3.51612e-05 0)
(-0.000150291 0.000206936 0)
(-0.000336855 0.00045578 0)
(-0.000604535 0.000752578 0)
(-0.000959729 0.00107461 0)
(-0.00140472 0.00140459 0)
(-0.0019388 0.00172969 0)
(-0.00255894 0.00204054 0)
(-0.00326032 0.00233051 0)
(-0.00403679 0.0025951 0)
(-0.00488125 0.00283135 0)
(-0.00578595 0.00303758 0)
(-0.00674271 0.003213 0)
(-0.00774318 0.00335753 0)
(-0.00877896 0.00347158 0)
(-0.00984171 0.00355596 0)
(-0.0109233 0.00361177 0)
(-0.0120158 0.00364028 0)
(-0.0131118 0.00364288 0)
(-0.0142039 0.00362106 0)
(-0.0152853 0.00357634 0)
(-0.0163496 0.00351024 0)
(-0.0173908 0.00342428 0)
(-0.0184033 0.00331994 0)
(-0.0193817 0.00319865 0)
(-0.0203214 0.00306181 0)
(-0.0212179 0.00291073 0)
(-0.022067 0.00274669 0)
(-0.0228652 0.00257088 0)
(-0.0236089 0.00238444 0)
(-0.0242953 0.00218846 0)
(-0.0249216 0.00198395 0)
(-0.0254854 0.00177189 0)
(-0.0259845 0.00155319 0)
(-0.026417 0.00132876 0)
(-0.0267814 0.00109943 0)
(-0.0270763 0.000866018 0)
(-0.0273006 0.000629337 0)
(-0.0274535 0.000390166 0)
(-0.0275343 0.000149286 0)
(-0.0275426 -9.2525e-05 0)
(-0.0274784 -0.000334481 0)
(-0.0273417 -0.000575781 0)
(-0.0271328 -0.000815606 0)
(-0.0268524 -0.00105311 0)
(-0.0265013 -0.0012874 0)
(-0.0260806 -0.00151758 0)
(-0.0255918 -0.00174267 0)
(-0.0250365 -0.00196165 0)
(-0.0244168 -0.00217348 0)
(-0.0237351 -0.00237702 0)
(-0.0229939 -0.00257108 0)
(-0.0221963 -0.00275445 0)
(-0.0213458 -0.0029258 0)
(-0.0204461 -0.00308378 0)
(-0.0195014 -0.00322698 0)
(-0.0185162 -0.00335392 0)
(-0.0174957 -0.00346309 0)
(-0.0164452 -0.00355295 0)
(-0.0153707 -0.00362191 0)
(-0.0142783 -0.00366841 0)
(-0.013175 -0.00369088 0)
(-0.0120677 -0.00368779 0)
(-0.0109639 -0.00365769 0)
(-0.00987162 -0.00359923 0)
(-0.00879888 -0.00351122 0)
(-0.00775407 -0.00339272 0)
(-0.00674571 -0.00324308 0)
(-0.00578237 -0.00306204 0)
(-0.00487251 -0.00284992 0)
(-0.00402434 -0.00260773 0)
(-0.0032456 -0.00233743 0)
(-0.00254335 -0.00204221 0)
(-0.00192358 -0.00172685 0)
(-0.00139092 -0.00139823 0)
(-0.000948155 -0.00106593 0)
(-0.000595702 -0.000742989 0)
(-0.00033095 -0.000446831 0)
(-0.000147165 -0.000200254 0)
(-3.35629e-05 -3.23802e-05 0)
(-4.65485e-05 8.01798e-05 0)
(-0.0002007 0.000346224 0)
(-0.000439808 0.00069283 0)
(-0.000773221 0.00108939 0)
(-0.00120611 0.00151134 0)
(-0.00173956 0.00193948 0)
(-0.0023718 0.0023592 0)
(-0.00309884 0.00275961 0)
(-0.00391501 0.00313282 0)
(-0.00481334 0.00347333 0)
(-0.00578594 0.00377749 0)
(-0.00682426 0.00404312 0)
(-0.00791932 0.00426915 0)
(-0.00906193 0.00445537 0)
(-0.0102429 0.00460224 0)
(-0.0114529 0.0047107 0)
(-0.0126832 0.00478207 0)
(-0.0139249 0.00481791 0)
(-0.0151696 0.00481996 0)
(-0.0164094 0.00479011 0)
(-0.0176365 0.00473026 0)
(-0.0188439 0.00464238 0)
(-0.0200248 0.0045284 0)
(-0.0211729 0.00439024 0)
(-0.0222823 0.00422976 0)
(-0.0233475 0.00404876 0)
(-0.0243637 0.00384897 0)
(-0.0253262 0.00363204 0)
(-0.0262309 0.00339954 0)
(-0.0270739 0.00315299 0)
(-0.0278518 0.00289378 0)
(-0.0285615 0.00262329 0)
(-0.0292003 0.00234278 0)
(-0.0297658 0.00205349 0)
(-0.0302559 0.00175659 0)
(-0.0306687 0.00145319 0)
(-0.0310027 0.00114441 0)
(-0.0312567 0.000831285 0)
(-0.0314297 0.000514876 0)
(-0.031521 0.000196217 0)
(-0.0315301 -0.000123658 0)
(-0.031457 -0.000443703 0)
(-0.0313018 -0.000762855 0)
(-0.0310647 -0.00108002 0)
(-0.0307466 -0.00139409 0)
(-0.0303484 -0.00170388 0)
(-0.0298714 -0.00200817 0)
(-0.0293171 -0.0023057 0)
(-0.0286876 -0.00259513 0)
(-0.0279852 -0.00287505 0)
(-0.0272123 -0.00314398 0)
(-0.0263722 -0.00340036 0)
(-0.0254682 -0.00364258 0)
(-0.0245042 -0.00386892 0)
(-0.0234844 -0.00407761 0)
(-0.0224136 -0.00426679 0)
(-0.0212969 -0.00443455 0)
(-0.02014 -0.00457893 0)
(-0.0189489 -0.00469792 0)
(-0.0177303 -0.0047895 0)
(-0.0164912 -0.00485164 0)
(-0.015239 -0.00488233 0)
(-0.0139818 -0.00487965 0)
(-0.0127278 -0.00484177 0)
(-0.0114858 -0.00476699 0)
(-0.0102647 -0.00465389 0)
(-0.00907378 -0.00450129 0)
(-0.00792246 -0.00430847 0)
(-0.00682013 -0.00407521 0)
(-0.00577609 -0.00380199 0)
(-0.00479937 -0.00349018 0)
(-0.00389852 -0.00314228 0)
(-0.00308137 -0.00276227 0)
(-0.00235472 -0.00235599 0)
(-0.00172406 -0.00193165 0)
(-0.00119309 -0.00150043 0)
(-0.000763263 -0.00107721 0)
(-0.000433136 -0.000681363 0)
(-0.000197158 -0.000337597 0)
(-4.56307e-05 -7.65603e-05 0)
(-5.84826e-05 0.000138514 0)
(-0.000250066 0.000520797 0)
(-0.000540871 0.000983075 0)
(-0.000939141 0.00149413 0)
(-0.00144871 0.00202827 0)
(-0.0020693 0.00256499 0)
(-0.00279788 0.00308831 0)
(-0.00362935 0.0035861 0)
(-0.00455707 0.00404939 0)
(-0.00557317 0.0044718 0)
(-0.00666893 0.00484904 0)
(-0.00783503 0.00517847 0)
(-0.00906171 0.00545874 0)
(-0.010339 0.00568953 0)
(-0.011657 0.00587134 0)
(-0.0130057 0.00600523 0)
(-0.0143754 0.00609275 0)
(-0.0157566 0.00613576 0)
(-0.0171403 0.0061364 0)
(-0.0185176 0.0060969 0)
(-0.0198804 0.00601965 0)
(-0.0212206 0.00590703 0)
(-0.0225311 0.00576145 0)
(-0.0238048 0.00558529 0)
(-0.0250354 0.00538087 0)
(-0.0262169 0.00515043 0)
(-0.0273437 0.00489615 0)
(-0.028411 0.00462011 0)
(-0.0294139 0.00432428 0)
(-0.0303485 0.00401057 0)
(-0.0312108 0.00368077 0)
(-0.0319975 0.00333659 0)
(-0.0327056 0.00297967 0)
(-0.0333323 0.00261156 0)
(-0.0338754 0.00223375 0)
(-0.0343328 0.00184769 0)
(-0.0347028 0.00145476 0)
(-0.0349841 0.00105631 0)
(-0.0351757 0.000653696 0)
(-0.0352767 0.000248226 0)
(-0.0352866 -0.000158772 0)
(-0.0352053 -0.000565965 0)
(-0.035033 -0.000971995 0)
(-0.03477 -0.00137547 0)
(-0.0344172 -0.00177497 0)
(-0.0339756 -0.00216898 0)
(-0.0334466 -0.00255598 0)
(-0.0328321 -0.00293434 0)
(-0.0321342 -0.00330235 0)
(-0.0313553 -0.00365824 0)
(-0.0304985 -0.00400014 0)
(-0.0295671 -0.00432607 0)
(-0.0285649 -0.00463399 0)
(-0.027496 -0.00492173 0)
(-0.0263653 -0.00518707 0)
(-0.0251778 -0.00542768 0)
(-0.0239393 -0.00564116 0)
(-0.022656 -0.00582505 0)
(-0.0213345 -0.00597686 0)
(-0.019982 -0.00609408 0)
(-0.0186063 -0.00617418 0)
(-0.0172155 -0.00621472 0)
(-0.0158183 -0.00621333 0)
(-0.0144237 -0.00616776 0)
(-0.0130411 -0.00607601 0)
(-0.0116805 -0.00593635 0)
(-0.0103516 -0.00574743 0)
(-0.0090648 -0.00550842 0)
(-0.00783017 -0.00521914 0)
(-0.00665781 -0.00488025 0)
(-0.00555753 -0.00449345 0)
(-0.00453867 -0.00406179 0)
(-0.00360987 -0.00358998 0)
(-0.00277884 -0.0030848 0)
(-0.002052 -0.00255563 0)
(-0.00143417 -0.00201496 0)
(-0.000928001 -0.00147911 0)
(-0.000533394 -0.000968833 0)
(-0.000246088 -0.000510015 0)
(-5.74482e-05 -0.000133962 0)
(-6.99475e-05 0.000209622 0)
(-0.000297518 0.000729584 0)
(-0.000638347 0.00132529 0)
(-0.0010997 0.00196553 0)
(-0.00168407 0.00262409 0)
(-0.00238974 0.00327963 0)
(-0.00321233 0.00391522 0)
(-0.00414552 0.00451776 0)
(-0.00518158 0.00507743 0)
(-0.00631168 0.00558713 0)
(-0.00752624 0.00604199 0)
(-0.00881512 0.00643897 0)
(-0.0101678 0.0067765 0)
(-0.0115736 0.00705418 0)
(-0.0130219 0.0072725 0)
(-0.014502 0.00743272 0)
(-0.0160035 0.0075366 0)
(-0.0175163 0.00758635 0)
(-0.0190306 0.00758444 0)
(-0.0205372 0.00753357 0)
(-0.0220269 0.00743654 0)
(-0.0234916 0.00729623 0)
(-0.0249231 0.00711553 0)
(-0.0263141 0.00689732 0)
(-0.0276576 0.00664439 0)
(-0.0289473 0.00635948 0)
(-0.0301772 0.00604523 0)
(-0.0313418 0.00570418 0)
(-0.0324361 0.00533876 0)
(-0.0334557 0.00495129 0)
(-0.0343964 0.00454396 0)
(-0.0352545 0.0041189 0)
(-0.0360268 0.00367811 0)
(-0.0367103 0.0032235 0)
(-0.0373025 0.00275693 0)
(-0.0378013 0.00228016 0)
(-0.0382048 0.00179491 0)
(-0.0385115 0.00130286 0)
(-0.0387202 0.000805677 0)
(-0.0388302 0.000304982 0)
(-0.0388409 -0.000197581 0)
(-0.0387521 -0.000700362 0)
(-0.038564 -0.00120168 0)
(-0.0382771 -0.00169983 0)
(-0.0378922 -0.00219302 0)
(-0.0374104 -0.00267943 0)
(-0.0368334 -0.00315714 0)
(-0.0361631 -0.00362415 0)
(-0.0354017 -0.00407839 0)
(-0.0345521 -0.00451764 0)
(-0.0336174 -0.00493961 0)
(-0.0326012 -0.00534189 0)
(-0.0315077 -0.00572196 0)
(-0.0303414 -0.00607719 0)
(-0.0291074 -0.00640483 0)
(-0.0278113 -0.00670206 0)
(-0.0264592 -0.00696597 0)
(-0.0250579 -0.00719356 0)
(-0.0236145 -0.00738182 0)
(-0.0221367 -0.0075277 0)
(-0.020633 -0.0076282 0)
(-0.0191119 -0.00768035 0)
(-0.0175829 -0.00768134 0)
(-0.0160556 -0.00762852 0)
(-0.0145402 -0.00751951 0)
(-0.0130471 -0.0073523 0)
(-0.011587 -0.00712534 0)
(-0.0101709 -0.0068377 0)
(-0.00880953 -0.00648922 0)
(-0.00751382 -0.00608072 0)
(-0.00629432 -0.00561421 0)
(-0.00516119 -0.00509322 0)
(-0.00412394 -0.00452312 0)
(-0.00319122 -0.00391149 0)
(-0.00237055 -0.00326867 0)
(-0.00166791 -0.0026082 0)
(-0.0010873 -0.00194741 0)
(-0.000630015 -0.001308 0)
(-0.000293076 -0.000716423 0)
(-6.87893e-05 -0.000204034 0)
(-8.08369e-05 0.000292835 0)
(-0.000342642 0.000971138 0)
(-0.000731398 0.00171765 0)
(-0.00125355 0.00250162 0)
(-0.00191035 0.00329674 0)
(-0.00269863 0.00408124 0)
(-0.00361261 0.00483759 0)
(-0.0046447 0.005552 0)
(-0.00578598 0.00621402 0)
(-0.00702664 0.00681597 0)
(-0.00835614 0.00735254 0)
(-0.00976351 0.00782037 0)
(-0.0112375 0.00821771 0)
(-0.0127667 0.0085441 0)
(-0.0143397 0.00880013 0)
(-0.0159452 0.00898719 0)
(-0.0175723 0.00910734 0)
(-0.0192101 0.00916309 0)
(-0.0208483 0.00915732 0)
(-0.0224771 0.00909317 0)
(-0.0240869 0.00897393 0)
(-0.0256688 0.00880295 0)
(-0.0272143 0.00858366 0)
(-0.0287156 0.00831943 0)
(-0.0301652 0.00801358 0)
(-0.0315564 0.00766937 0)
(-0.0328828 0.00728993 0)
(-0.0341386 0.00687829 0)
(-0.0353184 0.00643734 0)
(-0.0364175 0.00596987 0)
(-0.0374314 0.00547851 0)
(-0.0383563 0.0049658 0)
(-0.0391886 0.00443414 0)
(-0.0399251 0.00388584 0)
(-0.0405633 0.00332313 0)
(-0.0411007 0.00274814 0)
(-0.0415354 0.00216295 0)
(-0.0418658 0.00156957 0)
(-0.0420907 0.000970007 0)
(-0.0422092 0.000366232 0)
(-0.0422207 -0.000239777 0)
(-0.042125 -0.000846029 0)
(-0.0419224 -0.0014505 0)
(-0.0416133 -0.00205112 0)
(-0.0411985 -0.00264575 0)
(-0.0406795 -0.00323218 0)
(-0.0400577 -0.00380812 0)
(-0.0393354 -0.00437115 0)
(-0.0385149 -0.00491877 0)
(-0.0375993 -0.00544834 0)
(-0.0365918 -0.0059571 0)
(-0.0354965 -0.00644217 0)
(-0.0343176 -0.00690052 0)
(-0.03306 -0.00732901 0)
(-0.0317293 -0.00772438 0)
(-0.0303312 -0.00808324 0)
(-0.0288725 -0.00840214 0)
(-0.0273601 -0.00867753 0)
(-0.0258018 -0.00890583 0)
(-0.0242058 -0.00908345 0)
(-0.022581 -0.00920684 0)
(-0.0209365 -0.00927253 0)
(-0.0192824 -0.00927722 0)
(-0.0176289 -0.00921783 0)
(-0.0159868 -0.00909161 0)
(-0.0143671 -0.00889624 0)
(-0.0127813 -0.00862994 0)
(-0.0112409 -0.00829168 0)
(-0.00975744 -0.00788128 0)
(-0.00834258 -0.00739969 0)
(-0.00700765 -0.00684919 0)
(-0.00576364 -0.0062337 0)
(-0.004621 -0.00555914 0)
(-0.00358939 -0.00483377 0)
(-0.00267748 -0.00406864 0)
(-0.0018925 -0.00327809 0)
(-0.00123984 -0.00248016 0)
(-0.000722161 -0.00169703 0)
(-0.000337707 -0.000955359 0)
(-7.95473e-05 -0.000286102 0)
(-9.11213e-05 0.00038745 0)
(-0.00038532 0.00124386 0)
(-0.000819757 0.00215809 0)
(-0.00140024 0.0031001 0)
(-0.00212688 0.00404381 0)
(-0.00299512 0.00496734 0)
(-0.00399779 0.00585284 0)
(-0.00512596 0.0066861 0)
(-0.00636954 0.00745623 0)
(-0.00771761 0.00815515 0)
(-0.00915869 0.00877722 0)
(-0.0106809 0.00931887 0)
(-0.0122722 0.00977823 0)
(-0.0139205 0.0101549 0)
(-0.0156137 0.0104494 0)
(-0.0173399 0.0106636 0)
(-0.0190875 0.0107996 0)
(-0.020845 0.0108604 0)
(-0.0226017 0.0108493 0)
(-0.024347 0.0107699 0)
(-0.0260711 0.0106259 0)
(-0.0277644 0.0104212 0)
(-0.0294182 0.0101599 0)
(-0.031024 0.00984574 0)
(-0.0325741 0.00948269 0)
(-0.0340613 0.0090745 0)
(-0.0354788 0.00862485 0)
(-0.0368207 0.00813726 0)
(-0.0380812 0.00761515 0)
(-0.0392552 0.00706175 0)
(-0.0403381 0.00648019 0)
(-0.0413258 0.00587343 0)
(-0.0422145 0.00524432 0)
(-0.043001 0.00459557 0)
(-0.0436824 0.0039298 0)
(-0.0442561 0.00324954 0)
(-0.0447203 0.00255724 0)
(-0.0450731 0.00185528 0)
(-0.0453133 0.00114602 0)
(-0.0454399 0.000431806 0)
(-0.0454524 -0.000285037 0)
(-0.0453504 -0.00100215 0)
(-0.0451343 -0.00171715 0)
(-0.0448045 -0.00242758 0)
(-0.0443619 -0.00313092 0)
(-0.043808 -0.00382456 0)
(-0.0431444 -0.0045058 0)
(-0.0423733 -0.00517179 0)
(-0.0414975 -0.00581958 0)
(-0.0405198 -0.00644606 0)
(-0.039444 -0.00704799 0)
(-0.0382741 -0.00762198 0)
(-0.0370148 -0.00816447 0)
(-0.0356712 -0.00867179 0)
(-0.034249 -0.00914011 0)
(-0.0327546 -0.00956547 0)
(-0.0311947 -0.00994383 0)
(-0.0295771 -0.0102711 0)
(-0.0279096 -0.010543 0)
(-0.0262011 -0.0107555 0)
(-0.0244607 -0.0109043 0)
(-0.0226985 -0.0109856 0)
(-0.0209246 -0.0109955 0)
(-0.01915 -0.0109305 0)
(-0.0173861 -0.0107874 0)
(-0.0156446 -0.0105635 0)
(-0.0139373 -0.0102569 0)
(-0.0122767 -0.00986639 0)
(-0.010675 -0.00939168 0)
(-0.00914445 -0.00883384 0)
(-0.00769732 -0.00819534 0)
(-0.00634546 -0.00748042 0)
(-0.00510028 -0.00669542 0)
(-0.00397252 -0.00584911 0)
(-0.00297202 -0.0049531 0)
(-0.00210733 -0.00402225 0)
(-0.00138518 -0.00307503 0)
(-0.000809585 -0.00213386 0)
(-0.000379872 -0.00122522 0)
(-8.96947e-05 -0.000379453 0)
(-0.000100821 0.000492781 0)
(-0.000425635 0.00154616 0)
(-0.000903548 0.00264448 0)
(-0.0015399 0.00375855 0)
(-0.0023338 0.00486275 0)
(-0.00327939 0.00593534 0)
(-0.00436811 0.00695835 0)
(-0.00558972 0.0079174 0)
(-0.00693291 0.00880131 0)
(-0.00838563 0.00960178 0)
(-0.0099354 0.010313 0)
(-0.0115695 0.0109312 0)
(-0.0132749 0.0114546 0)
(-0.0150389 0.0118827 0)
(-0.0168487 0.0122165 0)
(-0.0186917 0.0124577 0)
(-0.0205557 0.012609 0)
(-0.0224288 0.0126738 0)
(-0.0242996 0.0126557 0)
(-0.026157 0.0125588 0)
(-0.0279908 0.0123874 0)
(-0.029791 0.0121461 0)
(-0.0315483 0.0118392 0)
(-0.033254 0.0114714 0)
(-0.0349 0.0110469 0)
(-0.0364787 0.0105702 0)
(-0.0379831 0.0100455 0)
(-0.0394069 0.00947678 0)
(-0.040744 0.00886808 0)
(-0.0419892 0.00822311 0)
(-0.0431377 0.00754546 0)
(-0.044185 0.00683859 0)
(-0.0451273 0.00610577 0)
(-0.0459612 0.00535016 0)
(-0.0466835 0.0045748 0)
(-0.0472919 0.00378261 0)
(-0.0477841 0.00297643 0)
(-0.0481582 0.00215906 0)
(-0.0484131 0.00133321 0)
(-0.0485475 0.000501616 0)
(-0.0485611 -0.000333025 0)
(-0.0484534 -0.00116797 0)
(-0.0482247 -0.00200045 0)
(-0.0478756 -0.00282762 0)
(-0.0474069 -0.00364655 0)
(-0.0468202 -0.00445421 0)
(-0.0461172 -0.00524746 0)
(-0.0453003 -0.00602301 0)
(-0.044372 -0.00677743 0)
(-0.0433358 -0.00750712 0)
(-0.0421953 -0.00820834 0)
(-0.0409547 -0.00887714 0)
(-0.0396191 -0.00950945 0)
(-0.0381936 -0.010101 0)
(-0.0366844 -0.0106473 0)
(-0.035098 -0.011144 0)
(-0.0334416 -0.0115862 0)
(-0.0317232 -0.0119693 0)
(-0.0299511 -0.0122885 0)
(-0.0281346 -0.012539 0)
(-0.0262832 -0.0127161 0)
(-0.0244073 -0.0128152 0)
(-0.0225179 -0.012832 0)
(-0.0206263 -0.0127624 0)
(-0.0187444 -0.0126029 0)
(-0.0168845 -0.0123505 0)
(-0.0150593 -0.0120028 0)
(-0.0132816 -0.0115586 0)
(-0.0115646 -0.0110174 0)
(-0.00992126 -0.0103803 0)
(-0.00836464 -0.00964994 0)
(-0.00690754 -0.00883076 0)
(-0.00556237 -0.0079294 0)
(-0.004341 -0.00695499 0)
(-0.00325446 -0.00591952 0)
(-0.00231261 -0.00483818 0)
(-0.00152351 -0.00372966 0)
(-0.000892436 -0.00261634 0)
(-0.000419665 -0.0015244 0)
(-9.92543e-05 -0.000483399 0)
(-0.000109986 0.000608199 0)
(-0.000463788 0.00187654 0)
(-0.00098314 0.00317477 0)
(-0.00167308 0.00447465 0)
(-0.00253184 0.00575112 0)
(-0.00355233 0.00698275 0)
(-0.00472468 0.00815165 0)
(-0.00603736 0.00924343 0)
(-0.00747779 0.0102468 0)
(-0.00903281 0.0111534 0)
(-0.0106889 0.0119572 0)
(-0.0124324 0.0126547 0)
(-0.0142494 0.013244 0)
(-0.0161265 0.0137247 0)
(-0.0180501 0.0140981 0)
(-0.020007 0.0143662 0)
(-0.0219844 0.0145321 0)
(-0.0239698 0.0145995 0)
(-0.0259513 0.0145726 0)
(-0.0279175 0.0144561 0)
(-0.0298574 0.0142548 0)
(-0.0317609 0.0139736 0)
(-0.0336182 0.0136178 0)
(-0.0354202 0.0131923 0)
(-0.0371585 0.0127023 0)
(-0.0388252 0.0121526 0)
(-0.040413 0.0115481 0)
(-0.0419154 0.0108933 0)
(-0.043326 0.0101928 0)
(-0.0446395 0.00945079 0)
(-0.0458507 0.00867142 0)
(-0.0469551 0.00785862 0)
(-0.0479487 0.00701612 0)
(-0.0488279 0.00614755 0)
(-0.0495895 0.00525636 0)
(-0.050231 0.00434592 0)
(-0.0507501 0.00341947 0)
(-0.0511448 0.00248019 0)
(-0.0514138 0.00153121 0)
(-0.051556 0.000575653 0)
(-0.0515708 -0.000383392 0)
(-0.051458 -0.00134279 0)
(-0.0512176 -0.00229936 0)
(-0.0508504 -0.00324986 0)
(-0.0503571 -0.00419092 0)
(-0.0497394 -0.0051191 0)
(-0.0489991 -0.00603078 0)
(-0.0481386 -0.00692221 0)
(-0.0471606 -0.00778947 0)
(-0.0460685 -0.00862845 0)
(-0.0448662 -0.00943485 0)
(-0.0435582 -0.0102042 0)
(-0.0421495 -0.0109318 0)
(-0.0406456 -0.0116129 0)
(-0.0390528 -0.0122423 0)
(-0.037378 -0.0128149 0)
(-0.0356287 -0.0133254 0)
(-0.033813 -0.0137684 0)
(-0.0319398 -0.0141385 0)
(-0.0300186 -0.0144303 0)
(-0.0280596 -0.0146384 0)
(-0.0260734 -0.0147576 0)
(-0.0240714 -0.0147831 0)
(-0.0220657 -0.0147103 0)
(-0.0200686 -0.0145351 0)
(-0.0180931 -0.0142542 0)
(-0.0161524 -0.0138649 0)
(-0.0142601 -0.0133656 0)
(-0.01243 -0.0127559 0)
(-0.010676 -0.0120367 0)
(-0.00901205 -0.0112107 0)
(-0.00745185 -0.0102825 0)
(-0.00600886 -0.00925879 0)
(-0.0046961 -0.00814908 0)
(-0.00352582 -0.00696554 0)
(-0.00250915 -0.00572352 0)
(-0.00165543 -0.00444175 0)
(-0.000971121 -0.00314248 0)
(-0.000457307 -0.00185142 0)
(-0.000108281 -0.00059731 0)
(-0.000118687 0.000733152 0)
(-0.00050006 0.00223366 0)
(-0.00105906 0.00374714 0)
(-0.00180057 0.00524629 0)
(-0.00272206 0.0067067 0)
(-0.00381532 0.00810733 0)
(-0.00506923 0.00943054 0)
(-0.00647094 0.010662 0)
(-0.00800667 0.0117906 0)
(-0.0096621 0.0128078 0)
(-0.0114227 0.0137079 0)
(-0.0132737 0.0144872 0)
(-0.0152005 0.0151441 0)
(-0.0171887 0.0156786 0)
(-0.0192241 0.0160919 0)
(-0.0212928 0.0163867 0)
(-0.0233814 0.0165663 0)
(-0.0254768 0.016635 0)
(-0.0275667 0.0165975 0)
(-0.0296391 0.0164589 0)
(-0.0316826 0.0162248 0)
(-0.0336867 0.0159007 0)
(-0.0356413 0.0154924 0)
(-0.0375369 0.0150056 0)
(-0.0393648 0.0144459 0)
(-0.0411168 0.0138188 0)
(-0.0427855 0.0131298 0)
(-0.0443639 0.012384 0)
(-0.0458456 0.0115866 0)
(-0.047225 0.0107423 0)
(-0.0484968 0.00985577 0)
(-0.0496563 0.00893142 0)
(-0.0506995 0.00797351 0)
(-0.0516225 0.00698611 0)
(-0.0524221 0.00597314 0)
(-0.0530957 0.00493839 0)