/*--------------------------------*- C++ -*----------------------------------*\
| =========                 |                                                 |
| \\      /  F ield         | OpenFOAM: The Open Source CFD Toolbox           |
|  \\    /   O peration     | Version:  4.1                                   |
|   \\  /    A nd           | Web:      www.OpenFOAM.org                      |
|    \\/     M anipulation  |                                                 |
\*---------------------------------------------------------------------------*/
FoamFile
{
    version     2.0;
    format      ascii;
    class       volVectorField;
    location    "0.1041";
    object      U;
}
// * * * * * * * * * * * * * * * * * * * * * * * * * * * * * * * * * * * * * //

dimensions      [0 1 -1 0 0 0 0];

internalField   nonuniform List<vector> 
441
(
(0.00385049 -0.00491606 0)
(0.0101058 -0.00254114 0)
(-0.000635285 -2.22456e-165 0)
(0.00202707 -3.45672e-266 0)
(-0.00837576 -0.00810851 0)
(-0.00202707 -3.14171e-232 0)
(-1.16265e-202 -5.82069e-203 0)
(-1.45513e-203 -7.64424e-228 0)
(-1.77255e-212 -3.33807e-213 0)
(-0.00632947 9.37926e-266 0)
(-0.0776533 0.0253185 0)
(-0.0973218 0.0131931 0)
(-0.109273 0.00598957 0)
(-0.0956375 0.000330774 0)
(-0.078087 -0.00176727 0)
(-0.0512935 -0.00313019 0)
(-0.0283826 -0.00219951 0)
(-0.00826418 -0.00156501 0)
(0.00364745 0.000860202 0)
(0.00498432 0.0016436 0)
(0.00468006 0.00309623 0)
(0.00401613 -0.00885761 0)
(-0.000628114 0.00694604 0)
(-0.0277818 0.0087509 0)
(-0.0607268 0.0108728 0)
(-0.110052 0.0112498 0)
(-0.156968 -0.00312242 0)
(-0.201259 -0.000120589 0)
(-0.243953 0.00173975 0)
(-0.281797 0.0136817 0)
(-0.319724 0.0691551 0)
(-0.345162 0.063399 0)
(-0.33862 0.0188703 0)
(-0.322178 -0.0083237 0)
(-0.277369 -0.0323296 0)
(-0.224916 -0.042797 0)
(-0.159456 -0.0479288 0)
(-0.100625 -0.0406678 0)
(-0.0488372 -0.0317609 0)
(-0.0144012 -0.013578 0)
(-0.000441103 -0.00339297 0)
(0.005102 0.00679648 0)
(0.00790978 -0.00880305 0)
(-0.00515569 0.0288698 0)
(-0.0557681 0.0586925 0)
(-0.124953 0.0796142 0)
(-0.209916 0.0869147 0)
(-0.297932 0.0869178 0)
(-0.392721 0.0839576 0)
(-0.47015 0.077927 0)
(-0.545841 0.0728561 0)
(-0.582805 0.0681139 0)
(-0.57816 0.0451711 0)
(-0.558393 -0.00848357 0)
(-0.518645 -0.0545622 0)
(-0.449576 -0.0967099 0)
(-0.367524 -0.118691 0)
(-0.269058 -0.127706 0)
(-0.178133 -0.111612 0)
(-0.0956134 -0.0883176 0)
(-0.0380509 -0.0464197 0)
(-0.00767106 -0.0183146 0)
(0.00654066 0.00813197 0)
(0.00652408 -0.0119756 0)
(-0.0170668 0.0724478 0)
(-0.101103 0.128474 0)
(-0.200732 0.167559 0)
(-0.31837 0.184593 0)
(-0.437011 0.182547 0)
(-0.553992 0.173908 0)
(-0.655334 0.155822 0)
(-0.73839 0.128929 0)
(-0.78698 0.0986717 0)
(-0.795919 0.0386963 0)
(-0.77009 -0.0418204 0)
(-0.716666 -0.117336 0)
(-0.625884 -0.184686 0)
(-0.517268 -0.223184 0)
(-0.386453 -0.238914 0)
(-0.263303 -0.213559 0)
(-0.147898 -0.173565 0)
(-0.0651138 -0.100622 0)
(-0.0158538 -0.0493877 0)
(0.00812715 0.00605687 0)
(7.15095e-165 0.00163102 0)
(-0.0260255 0.136028 0)
(-0.147566 0.241536 0)
(-0.272478 0.295344 0)
(-0.421096 0.322006 0)
(-0.565704 0.320574 0)
(-0.70952 0.300852 0)
(-0.831292 0.261138 0)
(-0.931887 0.203697 0)
(-0.990829 0.126391 0)
(-1.00759 0.02869 0)
(-0.982788 -0.0874611 0)
(-0.921124 -0.198 0)
(-0.813694 -0.296488 0)
(-0.680981 -0.357038 0)
(-0.516405 -0.382623 0)
(-0.358653 -0.348659 0)
(-0.203421 -0.287684 0)
(-0.0926456 -0.176716 0)
(-0.0188956 -0.0924659 0)
(0.0147415 0.00118776 0)
(-5.79425e-266 0.00602825 0)
(-0.0937236 0.224974 0)
(-0.206361 0.372776 0)
(-0.356419 0.442998 0)
(-0.519156 0.477627 0)
(-0.685746 0.472069 0)
(-0.846374 0.440133 0)
(-0.987762 0.378455 0)
(-1.10374 0.2894 0)
(-1.18023 0.173568 0)
(-1.21456 0.0309618 0)
(-1.19821 -0.129358 0)
(-1.13748 -0.286198 0)
(-1.01878 -0.426542 0)
(-0.865445 -0.52006 0)
(-0.666224 -0.563849 0)
(-0.47003 -0.5255 0)
(-0.268409 -0.442834 0)
(-0.124157 -0.28311 0)
(-0.0219206 -0.160063 0)
(0.0161389 0.00329477 0)
(-0.024113 0.0986765 0)
(-0.130713 0.338658 0)
(-0.260135 0.504584 0)
(-0.424939 0.60618 0)
(-0.607165 0.650409 0)
(-0.792524 0.646201 0)
(-0.973669 0.601945 0)
(-1.13516 0.517495 0)
(-1.27223 0.395882 0)
(-1.3694 0.236944 0)
(-1.42405 0.0471508 0)
(-1.42291 -0.164873 0)
(-1.37028 -0.376428 0)
(-1.24726 -0.569544 0)
(-1.07838 -0.708144 0)
(-0.844031 -0.78006 0)
(-0.607165 -0.744192 0)
(-0.34593 -0.636148 0)
(-0.165506 -0.419878 0)
(-0.00862888 -0.234672 0)
(6.01519e-266 -0.00403472 0)
(-0.0178176 0.163384 0)
(-0.125079 0.462179 0)
(-0.283475 0.667505 0)
(-0.469031 0.790785 0)
(-0.671146 0.845364 0)
(-0.875459 0.83882 0)
(-1.07478 0.783036 0)
(-1.25702 0.676855 0)
(-1.41603 0.524068 0)
(-1.53837 0.324815 0)
(-1.61937 0.0849142 0)
(-1.64156 -0.184241 0)
(-1.60695 -0.461321 0)
(-1.48971 -0.720774 0)
(-1.3137 -0.922632 0)
(-1.04945 -1.03942 0)
(-0.770208 -1.02199 0)
(-0.444613 -0.891071 0)
(-0.214114 -0.615727 0)
(-0.00391119 -0.335282 0)
(2.66185e-24 -1.04006e-24 0)
(-0.0157923 0.237752 0)
(-0.128148 0.602357 0)
(-0.302825 0.846786 0)
(-0.502592 0.991859 0)
(-0.720236 1.05538 0)
(-0.938923 1.04809 0)
(-1.15399 0.982487 0)
(-1.35443 0.857503 0)
(-1.53494 0.676926 0)
(-1.68311 0.43961 0)
(-1.79303 0.150942 0)
(-1.84514 -0.177847 0)
(-1.83794 -0.526808 0)
(-1.73904 -0.864192 0)
(-1.56902 -1.14621 0)
(-1.28565 -1.32698 0)
(-0.969778 -1.34535 0)
(-0.575606 -1.19788 0)
(-0.285824 -0.852617 0)
(-0.00511649 -0.457036 0)
(1.07998e-76 -6.65463e-25 0)
(-0.0135817 0.307858 0)
(-0.124349 0.750939 0)
(-0.307027 1.04261 0)
(-0.513868 1.20871 0)
(-0.739655 1.28203 0)
(-0.966237 1.27245 0)
(-1.18996 1.19873 0)
(-1.40291 1.05734 0)
(-1.59969 0.852916 0)
(-1.7711 0.582182 0)
(-1.9098 0.247312 0)
(-1.99618 -0.140512 0)
(-2.02518 -0.566687 0)
(-1.95875 -0.992396 0)
(-1.81158 -1.37513 0)
(-1.52716 -1.64486 0)
(-1.18656 -1.73052 0)
(-0.727329 -1.58578 0)
(-0.370503 -1.18045 0)
(-0.00744626 -0.636936 0)
(2.99759e-164 -2.69996e-77 0)
(-0.0133642 0.372117 0)
(-0.123434 0.893995 0)
(-0.309066 1.23388 0)
(-0.516444 1.42211 0)
(-0.741607 1.50594 0)
(-0.966634 1.49628 0)
(-1.18834 1.41798 0)
(-1.40318 1.2657 0)
(-1.60552 1.04469 0)
(-1.79159 0.748879 0)
(-1.95259 0.376679 0)
(-2.07285 -0.0628326 0)
(-2.14303 -0.562108 0)
(-2.12348 -1.07872 0)
(-2.01976 -1.57428 0)
(-1.76161 -1.95595 0)
(-1.42168 -2.14014 0)
(-0.917599 -2.02262 0)
(-0.495428 -1.56052 0)
(-0.0827378 -0.841253 0)
(1.80133e-265 0.0134431 0)
(-0.0136075 0.445525 0)
(-0.117865 1.04882 0)
(-0.29812 1.43706 0)
(-0.496037 1.64192 0)
(-0.708644 1.73333 0)
(-0.919467 1.71912 0)
(-1.12488 1.63592 0)
(-1.32701 1.47409 0)
(-1.51952 1.24156 0)
(-1.70601 0.928615 0)
(-1.8769 0.528753 0)
(-2.02353 0.0490032 0)
(-2.13398 -0.515322 0)
(-2.17076 -1.11782 0)
(-2.12997 -1.73564 0)
(-1.92876 -2.24955 0)
(-1.61992 -2.57318 0)
(-1.09157 -2.52672 0)
(-0.591946 -2.00935 0)
(-0.0767295 -1.15251 0)
(0.0537724 -0.0785003 0)
(-0.0165776 0.499187 0)
(-0.118704 1.17555 0)
(-0.294627 1.60914 0)
(-0.478168 1.82932 0)
(-0.666702 1.92757 0)
(-0.849443 1.90997 0)
(-1.01985 1.82463 0)
(-1.1903 1.65889 0)
(-1.35112 1.42354 0)
(-1.51788 1.10587 0)
(-1.67804 0.695084 0)
(-1.83673 0.194834 0)
(-1.97707 -0.412035 0)
(-2.07441 -1.08178 0)
(-2.11142 -1.81062 0)
(-2.00088 -2.46764 0)
(-1.77133 -2.97045 0)
(-1.24516 -3.05962 0)
(-0.718345 -2.56895 0)
(0.0442335 -1.49435 0)
(2.4859e-231 -0.0134431 0)
(-0.020814 0.583812 0)
(-0.11793 1.32993 0)
(-0.282207 1.80045 0)
(-0.440924 2.01514 0)
(-0.591482 2.10787 0)
(-0.730463 2.07275 0)
(-0.847868 1.9789 0)
(-0.966954 1.80562 0)
(-1.07435 1.57011 0)
(-1.19803 1.25576 0)
(-1.32326 0.84775 0)
(-1.47042 0.34826 0)
(-1.62162 -0.277485 0)
(-1.76971 -0.983706 0)
(-1.8918 -1.80788 0)
(-1.90729 -2.59364 0)
(-1.81544 -3.32701 0)
(-1.39853 -3.59795 0)
(-0.89264 -3.29195 0)
(-0.00286683 -1.90907 0)
(5.84131e-202 4.59206e-184 0)
(-0.0365354 0.631093 0)
(-0.146544 1.4309 0)
(-0.309652 1.9285 0)
(-0.442448 2.13325 0)
(-0.538107 2.21575 0)
(-0.615785 2.16316 0)
(-0.654257 2.06114 0)
(-0.69869 1.88442 0)
(-0.724951 1.65541 0)
(-0.780476 1.35582 0)
(-0.841249 0.969105 0)
(-0.952115 0.49601 0)
(-1.08359 -0.109247 0)
(-1.26869 -0.80733 0)
(-1.45882 -1.66474 0)
(-1.63349 -2.54043 0)
(-1.71331 -3.46234 0)
(-1.51652 -3.99081 0)
(-1.10463 -3.94078 0)
(-0.0115294 -2.4175 0)
(1.83682e-183 -1.61634e-184 0)
(-0.0550615 0.775178 0)
(-0.179422 1.60738 0)
(-0.331579 2.10601 0)
(-0.425583 2.2451 0)
(-0.450543 2.28857 0)
(-0.449932 2.1898 0)
(-0.392612 2.0663 0)
(-0.343766 1.87734 0)
(-0.269841 1.65398 0)
(-0.234313 1.37371 0)
(-0.205867 1.01962 0)
(-0.247936 0.593224 0)
(-0.32642 0.0376401 0)
(-0.504443 -0.604869 0)
(-0.73468 -1.44607 0)
(-1.04344 -2.33546 0)
(-1.347 -3.44848 0)
(-1.47878 -4.21313 0)
(-1.38962 -4.81353 0)
(-0.466771 -3.06099 0)
(4.40351e-254 -4.59206e-184 0)
(-0.12095 0.851965 0)
(-0.31317 1.69438 0)
(-0.456696 2.16982 0)
(-0.501216 2.24265 0)
(-0.407284 2.23957 0)
(-0.294999 2.1004 0)
(-0.0989511 1.95611 0)
(0.0722987 1.76082 0)
(0.276433 1.54774 0)
(0.424246 1.29451 0)
(0.566174 0.985197 0)
(0.610039 0.622742 0)
(0.615858 0.151106 0)
(0.459917 -0.389613 0)
(0.245083 -1.11776 0)
(-0.2201 -1.91711 0)
(-0.68048 -3.0009 0)
(-1.43406 -3.94696 0)
(-1.63531 -4.86163 0)
(-2.07488 -3.88336 0)
(-2.59938e-264 -0.216388 0)
(-0.177705 1.23114 0)
(-0.412351 1.94755 0)
(-0.491841 2.31657 0)
(-0.436813 2.19588 0)
(-0.189521 2.09617 0)
(0.066357 1.88096 0)
(0.417133 1.70558 0)
(0.72646 1.50206 0)
(1.06701 1.30427 0)
(1.33578 1.08593 0)
(1.59508 0.833507 0)
(1.74038 0.5487 0)
(1.84319 0.184495 0)
(1.76208 -0.224601 0)
(1.60575 -0.777067 0)
(1.15459 -1.39375 0)
(0.61216 -2.26642 0)
(-0.327034 -3.21443 0)
(-1.06904 -4.26359 0)
(-1.83944 -4.54506 0)
(-0.865553 -2.31923 0)
(-0.40071 1.40793 0)
(-0.724606 1.97988 0)
(-0.513894 2.18855 0)
(-0.227216 1.92325 0)
(0.336659 1.73725 0)
(0.808248 1.48559 0)
(1.37058 1.29792 0)
(1.83324 1.10886 0)
(2.31185 0.940475 0)
(2.68617 0.76953 0)
(3.04198 0.583194 0)
(3.26024 0.383467 0)
(3.43843 0.13292 0)
(3.40407 -0.136612 0)
(3.31768 -0.506909 0)
(2.88287 -0.901883 0)
(2.40398 -1.52061 0)
(1.376 -2.23667 0)
(0.466626 -3.35526 0)
(-0.7033 -4.00861 0)
(-0.701811 -2.96453 0)
(-0.257871 2.41845 0)
(-0.106009 2.05537 0)
(0.681966 1.86948 0)
(1.33217 1.33692 0)
(2.15381 1.08055 0)
(2.7877 0.839673 0)
(3.44907 0.686462 0)
(3.96866 0.556378 0)
(4.47386 0.451844 0)
(4.85852 0.355614 0)
(5.21308 0.258076 0)
(5.43007 0.157778 0)
(5.6081 0.0374784 0)
(5.58906 -0.09101 0)
(5.53181 -0.265993 0)
(5.161 -0.458697 0)
(4.76791 -0.791376 0)
(3.83399 -1.24502 0)
(2.86917 -2.25321 0)
(1.09364 -3.33052 0)
(-0.0466028 -3.79861 0)
(1.66667 1.669 0)
(2.70056 0.974028 0)
(4.53976 0.748074 0)
(5.3792 0.423992 0)
(6.24904 0.286967 0)
(6.76277 0.17879 0)
(7.24646 0.121972 0)
(7.57359 0.0814151 0)
(7.87438 0.0546604 0)
(8.07834 0.0337506 0)
(8.26047 0.0150992 0)
(8.3486 -0.00235378 0)
(8.41903 -0.0235159 0)
(8.3588 -0.0442218 0)
(8.29537 -0.0793205 0)
(8.00635 -0.111972 0)
(7.74951 -0.200777 0)
(6.99508 -0.293045 0)
(6.26181 -0.624733 0)
(4.04556 -0.996968 0)
(2.0048 -1.81747 0)
)
;

boundaryField
{
    movingWall
    {
        type            fixedValue;
        value           uniform (10 0 0);
    }
    fixedWalls
    {
        type            noSlip;
    }
    frontAndBack
    {
        type            empty;
    }
}


// ************************************************************************* //
