/*--------------------------------*- C++ -*----------------------------------*\
| =========                 |                                                 |
| \\      /  F ield         | OpenFOAM: The Open Source CFD Toolbox           |
|  \\    /   O peration     | Version:  4.1                                   |
|   \\  /    A nd           | Web:      www.OpenFOAM.org                      |
|    \\/     M anipulation  |                                                 |
\*---------------------------------------------------------------------------*/
FoamFile
{
    version     2.0;
    format      ascii;
    class       volVectorField;
    location    "0.044";
    object      U;
}
// * * * * * * * * * * * * * * * * * * * * * * * * * * * * * * * * * * * * * //

dimensions      [0 1 -1 0 0 0 0];

internalField   nonuniform List<vector> 
100
(
(-0.00207894 0.00204183 0)
(-0.00518118 0.00198082 0)
(-0.0102413 0.00186909 0)
(-0.0125624 0.000880159 0)
(-0.0146362 0.00045518 0)
(-0.0147414 -0.000749548 0)
(-0.0131046 -0.00121262 0)
(-0.0108296 -0.00230572 0)
(-0.00562072 -0.00246589 0)
(-0.00234996 -0.0025515 0)
(-0.00290608 0.00523145 0)
(-0.00808767 0.00605862 0)
(-0.0155406 0.00575363 0)
(-0.01915 0.00325352 0)
(-0.0220952 0.00207428 0)
(-0.0222474 -0.00107402 0)
(-0.0199036 -0.0023562 0)
(-0.0163617 -0.00539261 0)
(-0.00871947 -0.00582268 0)
(-0.00324238 -0.00539492 0)
(-0.00342007 0.0131645 0)
(-0.00925496 0.0145173 0)
(-0.0176111 0.0132844 0)
(-0.0216272 0.00709062 0)
(-0.0250003 0.00389223 0)
(-0.0252228 -0.00345309 0)
(-0.0228431 -0.00691488 0)
(-0.0189542 -0.0140486 0)
(-0.0103938 -0.0156697 0)
(-0.00411259 -0.0148355 0)
(-0.00533344 0.0176488 0)
(-0.0132 0.019863 0)
(-0.0240676 0.0182656 0)
(-0.029268 0.010268 0)
(-0.0333573 0.00615205 0)
(-0.0337865 -0.00343485 0)
(-0.0311728 -0.0079114 0)
(-0.0262883 -0.0177616 0)
(-0.0151799 -0.0199351 0)
(-0.00638696 -0.0194037 0)
(-0.00646223 0.0321847 0)
(-0.0155745 0.03317 0)
(-0.0280176 0.0300819 0)
(-0.0338974 0.0158139 0)
(-0.0387344 0.00893704 0)
(-0.0393844 -0.00660464 0)
(-0.0372699 -0.0142757 0)
(-0.0320658 -0.031289 0)
(-0.0197493 -0.0359885 0)
(-0.00903722 -0.0374075 0)
(-0.012619 0.0389324 0)
(-0.0268688 0.0405861 0)
(-0.0427025 0.0366765 0)
(-0.0505606 0.0203382 0)
(-0.0557113 0.0124424 0)
(-0.0569831 -0.00513919 0)
(-0.055846 -0.0138404 0)
(-0.0495693 -0.0349265 0)
(-0.0342472 -0.0412872 0)
(-0.0165406 -0.0469771 0)
(-0.0149569 0.0730276 0)
(-0.0320685 0.0629976 0)
(-0.0492362 0.0553346 0)
(-0.0576851 0.0277328 0)
(-0.0633527 0.0163105 0)
(-0.0647011 -0.00829967 0)
(-0.0659035 -0.021465 0)
(-0.0604104 -0.0555148 0)
(-0.0473392 -0.0698921 0)
(-0.0245517 -0.0908346 0)
(-0.0370034 0.0838158 0)
(-0.0653763 0.0731537 0)
(-0.0746158 0.0623418 0)
(-0.0819856 0.033334 0)
(-0.0827422 0.0208364 0)
(-0.0842121 -0.00300156 0)
(-0.0912374 -0.0155326 0)
(-0.0865725 -0.0527237 0)
(-0.0816354 -0.0733861 0)
(-0.0423484 -0.116118 0)
(-0.0319283 0.179005 0)
(-0.0396445 0.0993369 0)
(-0.0324779 0.0751936 0)
(-0.0268148 0.0337208 0)
(-0.0215916 0.0201647 0)
(-0.0144054 -0.00299103 0)
(-0.0219962 -0.0184509 0)
(-0.0137955 -0.0702997 0)
(-0.0328178 -0.115244 0)
(-0.0118949 -0.222535 0)
(0.143389 0.148675 0)
(0.201363 0.0707684 0)
(0.304941 0.0504126 0)
(0.33351 0.0212084 0)
(0.356973 0.010981 0)
(0.367774 -0.00320541 0)
(0.348397 -0.0113114 0)
(0.341035 -0.0401398 0)
(0.233581 -0.0657139 0)
(0.164597 -0.150153 0)
)
;

boundaryField
{
    movingWall
    {
        type            fixedValue;
        value           uniform (1 0 0);
    }
    fixedWalls
    {
        type            noSlip;
    }
    frontAndBack
    {
        type            empty;
    }
}


// ************************************************************************* //
