/*--------------------------------*- C++ -*----------------------------------*\
| =========                 |                                                 |
| \\      /  F ield         | OpenFOAM: The Open Source CFD Toolbox           |
|  \\    /   O peration     | Version:  4.1                                   |
|   \\  /    A nd           | Web:      www.OpenFOAM.org                      |
|    \\/     M anipulation  |                                                 |
\*---------------------------------------------------------------------------*/
FoamFile
{
    version     2.0;
    format      ascii;
    class       volScalarField;
    location    "0.1";
    object      p;
}
// * * * * * * * * * * * * * * * * * * * * * * * * * * * * * * * * * * * * * //

dimensions      [1 -1 -2 0 0 0 0];

internalField   nonuniform List<scalar> 
3200
(
0.4
0.4
0.4
0.4
0.4
0.4
0.4
0.4
0.4
0.4
0.4
0.4
0.4
0.4
0.4
0.4
0.4
0.4
0.4
0.4
0.4
0.4
0.4
0.4
0.4
0.4
0.4
0.4
0.4
0.4
0.4
0.4
0.4
0.4
0.4
0.4
0.4
0.4
0.4
0.4
0.4
0.4
0.4
0.4
0.4
0.4
0.4
0.4
0.4
0.4
0.4
0.4
0.4
0.4
0.4
0.4
0.4
0.4
0.4
0.4
0.4
0.4
0.4
0.4
0.4
0.4
0.4
0.4
0.4
0.4
0.4
0.4
0.4
0.4
0.4
0.4
0.4
0.4
0.4
0.4
0.4
0.4
0.4
0.4
0.4
0.4
0.4
0.4
0.4
0.4
0.4
0.4
0.4
0.4
0.4
0.4
0.4
0.4
0.4
0.4
0.4
0.4
0.4
0.4
0.4
0.4
0.4
0.4
0.4
0.4
0.4
0.4
0.4
0.4
0.4
0.4
0.4
0.4
0.4
0.4
0.4
0.4
0.4
0.4
0.4
0.4
0.4
0.4
0.4
0.4
0.4
0.4
0.4
0.4
0.4
0.4
0.4
0.4
0.4
0.4
0.4
0.4
0.4
0.4
0.4
0.4
0.4
0.4
0.4
0.4
0.4
0.4
0.4
0.4
0.4
0.4
0.4
0.4
0.4
0.4
0.4
0.4
0.4
0.4
0.4
0.4
0.4
0.4
0.4
0.4
0.4
0.4
0.4
0.4
0.4
0.4
0.4
0.4
0.4
0.4
0.4
0.4
0.4
0.4
0.4
0.4
0.4
0.4
0.4
0.4
0.4
0.4
0.4
0.4
0.4
0.4
0.4
0.4
0.4
0.4
0.4
0.4
0.4
0.4
0.4
0.4
0.4
0.4
0.4
0.4
0.4
0.4
0.4
0.4
0.4
0.4
0.4
0.4
0.4
0.4
0.4
0.4
0.4
0.4
0.4
0.4
0.4
0.4
0.4
0.4
0.4
0.4
0.4
0.4
0.4
0.4
0.4
0.4
0.4
0.4
0.4
0.4
0.4
0.4
0.4
0.4
0.4
0.4
0.4
0.4
0.4
0.4
0.4
0.4
0.4
0.4
0.4
0.4
0.4
0.4
0.4
0.4
0.4
0.4
0.4
0.4
0.4
0.4
0.4
0.4
0.4
0.4
0.4
0.4
0.4
0.4
0.4
0.4
0.4
0.4
0.4
0.4
0.4
0.4
0.4
0.4
0.4
0.4
0.4
0.4
0.4
0.4
0.4
0.4
0.4
0.4
0.4
0.4
0.4
0.4
0.4
0.4
0.4
0.4
0.4
0.4
0.4
0.4
0.4
0.4
0.4
0.4
0.4
0.4
0.4
0.4
0.4
0.4
0.4
0.4
0.4
0.4
0.4
0.4
0.4
0.4
0.4
0.4
0.4
0.4
0.4
0.4
0.4
0.4
0.4
0.4
0.4
0.4
0.4
0.4
0.4
0.4
0.4
0.4
0.4
0.4
0.4
0.4
0.4
0.4
0.4
0.4
0.4
0.4
0.4
0.4
0.4
0.4
0.4
0.4
0.4
0.4
0.4
0.4
0.4
0.4
0.4
0.4
0.4
0.4
0.4
0.4
0.4
0.4
0.4
0.4
0.4
0.4
0.4
0.4
0.4
0.4
0.4
0.4
0.4
0.4
0.4
0.4
0.4
0.4
0.4
0.4
0.4
0.4
0.4
0.4
0.4
0.4
0.4
0.4
0.4
0.4
0.4
0.4
0.4
0.4
0.4
0.4
0.4
0.4
0.4
0.4
0.4
0.4
0.4
0.4
0.4
0.4
0.4
0.4
0.4
0.4
0.4
0.4
0.4
0.4
0.4
0.4
0.4
0.4
0.4
0.4
0.4
0.4
0.4
0.4
0.4
0.4
0.4
0.4
0.4
0.4
0.4
0.4
0.4
0.4
0.4
0.4
0.4
0.4
0.4
0.4
0.4
0.4
0.4
0.4
0.4
0.4
0.4
0.4
0.4
0.4
0.4
0.4
0.4
0.4
0.4
0.4
0.4
0.4
0.4
0.4
0.4
0.4
0.4
0.4
0.4
0.4
0.4
0.4
0.4
0.4
0.4
0.4
0.4
0.4
0.4
0.4
0.4
0.4
0.4
0.4
0.4
0.4
0.4
0.4
0.4
0.4
0.4
0.4
0.4
0.4
0.4
0.4
0.4
0.4
0.4
0.4
0.4
0.4
0.4
0.4
0.4
0.4
0.4
0.4
0.4
0.4
0.4
0.4
0.4
0.4
0.4
0.4
0.4
0.4
0.4
0.4
0.4
0.4
0.4
0.4
0.4
0.399999
0.399999
0.399999
0.399999
0.399999
0.399999
0.399999
0.399999
0.399999
0.399999
0.399998
0.399998
0.399998
0.399998
0.399998
0.399997
0.399997
0.399997
0.399997
0.399996
0.399996
0.399995
0.399995
0.399994
0.399994
0.399993
0.399992
0.399992
0.399991
0.39999
0.399989
0.399988
0.399986
0.399985
0.399984
0.399982
0.39998
0.399979
0.399977
0.399974
0.399972
0.39997
0.399967
0.399964
0.399961
0.399957
0.399953
0.399949
0.399945
0.39994
0.399935
0.399929
0.399923
0.399917
0.39991
0.399902
0.399894
0.399885
0.399876
0.399866
0.399855
0.399844
0.399832
0.399818
0.399804
0.399789
0.399773
0.399756
0.399738
0.399718
0.399698
0.399676
0.399652
0.399627
0.3996
0.399572
0.399542
0.39951
0.399476
0.39944
0.399403
0.399362
0.39932
0.399275
0.399227
0.399177
0.399124
0.399069
0.39901
0.398948
0.398883
0.398814
0.398742
0.398666
0.398586
0.398503
0.398415
0.398323
0.398227
0.398126
0.39802
0.39791
0.397794
0.397674
0.397548
0.397416
0.397279
0.397136
0.396987
0.396832
0.396671
0.396503
0.396329
0.396147
0.395959
0.395764
0.395561
0.395351
0.395133
0.394908
0.394675
0.394433
0.394184
0.393926
0.393659
0.393384
0.3931
0.392808
0.392506
0.392195
0.391875
0.391545
0.391206
0.390858
0.390499
0.390131
0.389753
0.389365
0.388966
0.388558
0.388139
0.38771
0.387271
0.386821
0.386361
0.38589
0.385408
0.384916
0.384413
0.3839
0.383376
0.382841
0.382296
0.38174
0.381173
0.380595
0.380007
0.379408
0.378798
0.378178
0.377547
0.376906
0.376254
0.375592
0.374919
0.374236
0.373543
0.37284
0.372126
0.371403
0.370669
0.369926
0.369172
0.368409
0.367637
0.366855
0.366063
0.365263
0.364453
0.363634
0.362806
0.361969
0.361123
0.360269
0.359406
0.358535
0.357656
0.356768
0.355873
0.354969
0.354058
0.35314
0.352214
0.35128
0.350339
0.349392
0.348437
0.347476
0.346508
0.345533
0.344552
0.343565
0.342572
0.341573
0.340568
0.339557
0.338541
0.337519
0.336492
0.33546
0.334423
0.333381
0.332335
0.331284
0.330228
0.329168
0.328104
0.327036
0.325964
0.324888
0.323809
0.322725
0.321639
0.320549
0.319456
0.31836
0.317261
0.316159
0.315055
0.313948
0.312838
0.311726
0.310612
0.309496
0.308378
0.307258
0.306136
0.305012
0.303887
0.30276
0.301632
0.300503
0.299372
0.29824
0.297108
0.295974
0.29484
0.293705
0.292569
0.291432
0.290296
0.289159
0.288021
0.286883
0.285746
0.284608
0.28347
0.282332
0.281195
0.280058
0.278921
0.277784
0.276648
0.275513
0.274378
0.273244
0.27211
0.270978
0.269846
0.268715
0.267585
0.266457
0.265329
0.264203
0.263077
0.261953
0.260831
0.259709
0.25859
0.257471
0.256354
0.255239
0.254126
0.253014
0.251904
0.250795
0.249689
0.248584
0.247481
0.24638
0.245281
0.244184
0.243089
0.241997
0.240906
0.239817
0.238731
0.237647
0.236565
0.235486
0.234409
0.233334
0.232262
0.231192
0.230124
0.229059
0.227996
0.226936
0.225879
0.224824
0.223772
0.222722
0.221675
0.220631
0.219589
0.21855
0.217514
0.216481
0.21545
0.214422
0.213397
0.212375
0.211356
0.210339
0.209325
0.208315
0.207307
0.206302
0.2053
0.204301
0.203305
0.202312
0.201322
0.200335
0.199352
0.198371
0.197393
0.196418
0.195446
0.194478
0.193512
0.192549
0.19159
0.190634
0.189681
0.188731
0.187784
0.18684
0.185899
0.184962
0.184028
0.183097
0.182169
0.181244
0.180322
0.179404
0.178489
0.177577
0.176668
0.175762
0.17486
0.173961
0.173065
0.172172
0.171282
0.170396
0.169513
0.168633
0.167756
0.166883
0.166013
0.165146
0.164282
0.163421
0.162564
0.16171
0.160859
0.160011
0.159167
0.158325
0.157487
0.156653
0.155821
0.154993
0.154168
0.153346
0.152527
0.151711
0.150899
0.15009
0.149284
0.148481
0.147682
0.146886
0.146092
0.145302
0.144516
0.143732
0.142952
0.142174
0.1414
0.14063
0.139862
0.139097
0.138336
0.137577
0.136822
0.13607
0.135321
0.134576
0.133833
0.133093
0.132357
0.131624
0.130893
0.130166
0.129442
0.128721
0.128003
0.127289
0.126577
0.125868
0.125162
0.12446
0.12376
0.123064
0.12237
0.12168
0.120992
0.120308
0.119627
0.118948
0.118273
0.1176
0.116931
0.116264
0.115601
0.11494
0.114282
0.113628
0.112976
0.112327
0.111681
0.111038
0.110398
0.109761
0.109127
0.108495
0.107867
0.107241
0.106618
0.105998
0.105381
0.104767
0.104155
0.103547
0.102941
0.102338
0.101738
0.10114
0.100546
0.099954
0.0993649
0.0987787
0.0981951
0.0976143
0.0970363
0.0964609
0.0958883
0.0953184
0.0947513
0.0941868
0.093625
0.0930659
0.0925094
0.0919557
0.0914046
0.0908561
0.0903103
0.0897671
0.0892265
0.0886886
0.0881533
0.0876205
0.0870904
0.0865629
0.0860379
0.0855155
0.0849956
0.0844784
0.0839636
0.0834514
0.0829417
0.0824345
0.0819299
0.0814277
0.0809281
0.0804309
0.0799362
0.079444
0.0789542
0.0784669
0.0779821
0.0774997
0.0770197
0.0765421
0.0760669
0.0755942
0.0751238
0.0746558
0.0741902
0.073727
0.0732661
0.0728076
0.0723514
0.0718976
0.0714461
0.0709969
0.07055
0.0701055
0.0696632
0.0692232
0.0687855
0.0683501
0.0679169
0.067486
0.0670573
0.0666309
0.0662067
0.0657847
0.065365
0.0649474
0.064532
0.0641189
0.0637079
0.0632991
0.0628924
0.0624879
0.0620856
0.0616854
0.0612873
0.0608913
0.0604975
0.0601058
0.0597161
0.0593286
0.0589432
0.0585598
0.0581785
0.0577992
0.057422
0.0570469
0.0566738
0.0563027
0.0559336
0.0555666
0.0552015
0.0548384
0.0544774
0.0541183
0.0537612
0.053406
0.0530528
0.0527016
0.0523523
0.0520049
0.0516595
0.0513159
0.0509743
0.0506346
0.0502968
0.0499609
0.0496268
0.0492946
0.0489643
0.0486359
0.0483092
0.0479845
0.0476615
0.0473404
0.0470211
0.0467036
0.0463879
0.0460741
0.045762
0.0454516
0.0451431
0.0448363
0.0445313
0.044228
0.0439265
0.0436267
0.0433286
0.0430323
0.0427376
0.0424447
0.0421535
0.0418639
0.0415761
0.0412899
0.0410054
0.0407226
0.0404414
0.0401618
0.0398839
0.0396077
0.039333
0.03906
0.0387886
0.0385188
0.0382506
0.037984
0.0377189
0.0374555
0.0371936
0.0369332
0.0366745
0.0364172
0.0361616
0.0359074
0.0356548
0.0354037
0.0351541
0.034906
0.0346595
0.0344144
0.0341708
0.0339287
0.033688
0.0334488
0.0332111
0.0329748
0.03274
0.0325066
0.0322747
0.0320442
0.0318151
0.0315874
0.0313611
0.0311362
0.0309127
0.0306906
0.0304699
0.0302505
0.0300325
0.0298159
0.0296006
0.0293867
0.0291741
0.0289628
0.0287529
0.0285443
0.028337
0.028131
0.0279263
0.027723
0.0275209
0.0273201
0.0271205
0.0269223
0.0267253
0.0265295
0.0263351
0.0261418
0.0259498
0.0257591
0.0255695
0.0253812
0.0251941
0.0250082
0.0248235
0.02464
0.0244577
0.0242766
0.0240967
0.0239179
0.0237404
0.0235639
0.0233887
0.0232145
0.0230416
0.0228697
0.022699
0.0225294
0.022361
0.0221936
0.0220274
0.0218623
0.0216982
0.0215353
0.0213734
0.0212127
0.021053
0.0208944
0.0207368
0.0205803
0.0204248
0.0202704
0.0201171
0.0199647
0.0198134
0.0196632
0.0195139
0.0193657
0.0192185
0.0190722
0.018927
0.0187828
0.0186395
0.0184973
0.018356
0.0182157
0.0180763
0.017938
0.0178005
0.017664
0.0175285
0.0173939
0.0172602
0.0171275
0.0169957
0.0168648
0.0167349
0.0166058
0.0164776
0.0163504
0.016224
0.0160985
0.0159739
0.0158502
0.0157274
0.0156054
0.0154843
0.0153641
0.0152447
0.0151261
0.0150084
0.0148916
0.0147756
0.0146604
0.014546
0.0144325
0.0143197
0.0142078
0.0140967
0.0139864
0.0138769
0.0137682
0.0136602
0.0135531
0.0134467
0.0133411
0.0132363
0.0131323
0.013029
0.0129264
0.0128246
0.0127236
0.0126233
0.0125237
0.0124249
0.0123268
0.0122294
0.0121328
0.0120368
0.0119416
0.0118471
0.0117533
0.0116602
0.0115678
0.011476
0.011385
0.0112947
0.011205
0.011116
0.0110276
0.01094
0.010853
0.0107666
0.0106809
0.0105959
0.0105115
0.0104278
0.0103447
0.0102622
0.0101803
0.0100991
0.0100185
0.00993853
0.00985916
0.00978041
0.00970226
0.00962472
0.00954778
0.00947143
0.00939568
0.00932051
0.00924594
0.00917194
0.00909852
0.00902568
0.0089534
0.0088817
0.00881055
0.00873997
0.00866995
0.00860048
0.00853156
0.00846318
0.00839535
0.00832806
0.00826131
0.00819509
0.0081294
0.00806424
0.0079996
0.00793549
0.00787189
0.0078088
0.00774623
0.00768416
0.00762261
0.00756155
0.00750099
0.00744093
0.00738136
0.00732229
0.0072637
0.0072056
0.00714798
0.00709084
0.00703418
0.00697799
0.00692227
0.00686703
0.00681225
0.00675793
0.00670408
0.00665068
0.00659775
0.00654526
0.00649323
0.00644166
0.00639053
0.00633984
0.0062896
0.00623981
0.00619045
0.00614153
0.00609305
0.00604501
0.00599739
0.00595021
0.00590346
0.00585714
0.00581125
0.00576579
0.00572075
0.00567613
0.00563194
0.00558817
0.00554482
0.00550189
0.00545939
0.0054173
0.00537563
0.00533439
0.00529356
0.00525316
0.00521318
0.00517361
0.00513447
0.00509576
0.00505746
0.0050196
0.00498216
0.00494515
0.00490857
0.00487242
0.00483671
0.00480144
0.00476661
0.00473222
0.00469829
0.00466481
0.00463179
0.00459923
0.00456713
0.00453552
0.00450438
0.00447373
0.00444357
0.00441392
0.00438477
0.00435614
0.00432803
0.00430046
0.00427344
0.00424697
0.00422106
0.00419572
0.00417097
0.00414682
0.00412327
0.00410034
0.00407804
0.00405637
0.00403535
0.00401499
0.00399529
0.00397627
0.00395792
0.00394025
0.00392327
0.00390698
0.00389137
0.00387645
0.0038622
0.00384862
0.0038357
0.00382342
0.00381177
0.00380074
0.00379028
0.0037804
0.00377105
0.00376221
0.00375384
0.00374593
0.00373843
0.00373131
0.00372454
0.00371809
0.00371192
0.00370601
0.00370033
0.00369484
0.00368952
0.00368435
0.00367931
0.00367438
0.00366953
0.00366476
0.00366006
0.0036554
0.00365079
0.00364621
0.00364167
0.00363714
0.00363264
0.00362816
0.00362369
0.00361925
0.00361482
0.00361041
0.00360601
0.00360164
0.00359729
0.00359296
0.00358866
0.00358438
0.00358013
0.00357591
0.00357172
0.00356757
0.00356345
0.00355936
0.00355532
0.00355131
0.00354734
0.00354342
0.00353953
0.00353569
0.0035319
0.00352815
0.00352444
0.00352078
0.00351717
0.00351361
0.00351009
0.00350662
0.0035032
0.00349983
0.00349651
0.00349324
0.00349002
0.00348685
0.00348372
0.00348065
0.00347763
0.00347466
0.00347173
0.00346886
0.00346604
0.00346326
0.00346054
0.00345786
0.00345523
0.00345265
0.00345012
0.00344764
0.00344521
0.00344282
0.00344048
0.00343819
0.00343595
0.00343375
0.0034316
0.00342949
0.00342743
0.00342542
0.00342345
0.00342152
0.00341964
0.0034178
0.00341601
0.00341426
0.00341255
0.00341089
0.00340926
0.00340768
0.00340614
0.00340464
0.00340318
0.00340176
0.00340038
0.00339904
0.00339774
0.00339648
0.00339525
0.00339406
0.00339291
0.0033918
0.00339072
0.00338968
0.00338867
0.0033877
0.00338677
0.00338587
0.003385
0.00338417
0.00338337
0.00338261
0.00338187
0.00338118
0.00338051
0.00337987
0.00337927
0.0033787
0.00337816
0.00337766
0.00337718
0.00337674
0.00337633
0.00337594
0.00337559
0.00337527
0.00337499
0.00337473
0.0033745
0.0033743
0.00337413
0.00337399
0.00337388
0.00337379
0.00337374
0.00337371
0.00337371
0.00337374
0.00337379
0.00337388
0.00337399
0.00337413
0.0033743
0.0033745
0.00337473
0.00337499
0.00337527
0.00337559
0.00337594
0.00337633
0.00337674
0.00337718
0.00337766
0.00337816
0.0033787
0.00337927
0.00337987
0.00338051
0.00338118
0.00338187
0.00338261
0.00338337
0.00338417
0.003385
0.00338587
0.00338677
0.0033877
0.00338867
0.00338968
0.00339072
0.0033918
0.00339291
0.00339406
0.00339525
0.00339648
0.00339774
0.00339904
0.00340038
0.00340176
0.00340318
0.00340464
0.00340614
0.00340768
0.00340926
0.00341089
0.00341255
0.00341426
0.00341601
0.0034178
0.00341964
0.00342152
0.00342345
0.00342542
0.00342743
0.00342949
0.0034316
0.00343375
0.00343595
0.00343819
0.00344048
0.00344282
0.00344521
0.00344764
0.00345012
0.00345265
0.00345523
0.00345786
0.00346054
0.00346326
0.00346604
0.00346886
0.00347173
0.00347466
0.00347763
0.00348065
0.00348372
0.00348685
0.00349002
0.00349324
0.00349651
0.00349983
0.0035032
0.00350662
0.00351009
0.00351361
0.00351717
0.00352078
0.00352444
0.00352815
0.0035319
0.00353569
0.00353953
0.00354342
0.00354734
0.00355131
0.00355532
0.00355936
0.00356345
0.00356757
0.00357172
0.00357591
0.00358013
0.00358438
0.00358866
0.00359296
0.00359729
0.00360164
0.00360601
0.00361041
0.00361482
0.00361925
0.00362369
0.00362816
0.00363264
0.00363714
0.00364167
0.00364621
0.00365079
0.0036554
0.00366006
0.00366476
0.00366953
0.00367438
0.00367931
0.00368435
0.00368952
0.00369484
0.00370033
0.00370601
0.00371192
0.00371809
0.00372454
0.00373131
0.00373843
0.00374593
0.00375384
0.00376221
0.00377105
0.0037804
0.00379028
0.00380074
0.00381177
0.00382342
0.0038357
0.00384862
0.0038622
0.00387645
0.00389137
0.00390698
0.00392327
0.00394025
0.00395792
0.00397627
0.00399529
0.00401499
0.00403535
0.00405637
0.00407804
0.00410034
0.00412327
0.00414682
0.00417097
0.00419572
0.00422106
0.00424697
0.00427344
0.00430046
0.00432803
0.00435614
0.00438477
0.00441392
0.00444357
0.00447373
0.00450438
0.00453552
0.00456713
0.00459923
0.00463179
0.00466481
0.00469829
0.00473222
0.00476661
0.00480144
0.00483671
0.00487242
0.00490857
0.00494515
0.00498216
0.0050196
0.00505746
0.00509576
0.00513447
0.00517361
0.00521318
0.00525316
0.00529356
0.00533439
0.00537563
0.0054173
0.00545939
0.00550189
0.00554482
0.00558817
0.00563194
0.00567613
0.00572075
0.00576579
0.00581125
0.00585714
0.00590346
0.00595021
0.00599739
0.00604501
0.00609305
0.00614153
0.00619045
0.00623981
0.0062896
0.00633984
0.00639053
0.00644166
0.00649323
0.00654526
0.00659775
0.00665068
0.00670408
0.00675793
0.00681225
0.00686703
0.00692227
0.00697799
0.00703418
0.00709084
0.00714798
0.0072056
0.0072637
0.00732229
0.00738136
0.00744093
0.00750099
0.00756155
0.00762261
0.00768416
0.00774623
0.0078088
0.00787189
0.00793549
0.0079996
0.00806424
0.0081294
0.00819509
0.00826131
0.00832806
0.00839535
0.00846318
0.00853156
0.00860048
0.00866995
0.00873997
0.00881055
0.0088817
0.0089534
0.00902568
0.00909852
0.00917194
0.00924594
0.00932051
0.00939568
0.00947143
0.00954778
0.00962472
0.00970226
0.00978041
0.00985916
0.00993853
0.0100185
0.0100991
0.0101803
0.0102622
0.0103447
0.0104278
0.0105115
0.0105959
0.0106809
0.0107666
0.010853
0.01094
0.0110276
0.011116
0.011205
0.0112947
0.011385
0.011476
0.0115678
0.0116602
0.0117533
0.0118471
0.0119416
0.0120368
0.0121328
0.0122294
0.0123268
0.0124249
0.0125237
0.0126233
0.0127236
0.0128246
0.0129264
0.013029
0.0131323
0.0132363
0.0133411
0.0134467
0.0135531
0.0136602
0.0137682
0.0138769
0.0139864
0.0140967
0.0142078
0.0143197
0.0144325
0.014546
0.0146604
0.0147756
0.0148916
0.0150084
0.0151261
0.0152447
0.0153641
0.0154843
0.0156054
0.0157274
0.0158502
0.0159739
0.0160985
0.016224
0.0163504
0.0164776
0.0166058
0.0167349
0.0168648
0.0169957
0.0171275
0.0172602
0.0173939
0.0175285
0.017664
0.0178005
0.017938
0.0180763
0.0182157
0.018356
0.0184973
0.0186395
0.0187828
0.018927
0.0190722
0.0192185
0.0193657
0.0195139
0.0196632
0.0198134
0.0199647
0.0201171
0.0202704
0.0204248
0.0205803
0.0207368
0.0208944
0.021053
0.0212127
0.0213734
0.0215353
0.0216982
0.0218623
0.0220274
0.0221936
0.022361
0.0225294
0.022699
0.0228697
0.0230416
0.0232145
0.0233887
0.0235639
0.0237404
0.0239179
0.0240967
0.0242766
0.0244577
0.02464
0.0248235
0.0250082
0.0251941
0.0253812
0.0255695
0.0257591
0.0259498
0.0261418
0.0263351
0.0265295
0.0267253
0.0269223
0.0271205
0.0273201
0.0275209
0.027723
0.0279263
0.028131
0.028337
0.0285443
0.0287529
0.0289628
0.0291741
0.0293867
0.0296006
0.0298159
0.0300325
0.0302505
0.0304699
0.0306906
0.0309127
0.0311362
0.0313611
0.0315874
0.0318151
0.0320442
0.0322747
0.0325066
0.03274
0.0329748
0.0332111
0.0334488
0.033688
0.0339287
0.0341708
0.0344144
0.0346595
0.034906
0.0351541
0.0354037
0.0356548
0.0359074
0.0361616
0.0364172
0.0366745
0.0369332
0.0371936
0.0374555
0.0377189
0.037984
0.0382506
0.0385188
0.0387886
0.03906
0.039333
0.0396077
0.0398839
0.0401618
0.0404414
0.0407226
0.0410054
0.0412899
0.0415761
0.0418639
0.0421535
0.0424447
0.0427376
0.0430323
0.0433286
0.0436267
0.0439265
0.044228
0.0445313
0.0448363
0.0451431
0.0454516
0.045762
0.0460741
0.0463879
0.0467036
0.0470211
0.0473404
0.0476615
0.0479845
0.0483092
0.0486359
0.0489643
0.0492946
0.0496268
0.0499609
0.0502968
0.0506346
0.0509743
0.0513159
0.0516595
0.0520049
0.0523523
0.0527016
0.0530528
0.053406
0.0537612
0.0541183
0.0544774
0.0548384
0.0552015
0.0555666
0.0559336
0.0563027
0.0566738
0.0570469
0.057422
0.0577992
0.0581785
0.0585598
0.0589432
0.0593286
0.0597161
0.0601058
0.0604975
0.0608913
0.0612873
0.0616854
0.0620856
0.0624879
0.0628924
0.0632991
0.0637079
0.0641189
0.064532
0.0649474
0.065365
0.0657847
0.0662067
0.0666309
0.0670573
0.067486
0.0679169
0.0683501
0.0687855
0.0692232
0.0696632
0.0701055
0.07055
0.0709969
0.0714461
0.0718976
0.0723514
0.0728076
0.0732661
0.073727
0.0741902
0.0746558
0.0751238
0.0755942
0.0760669
0.0765421
0.0770197
0.0774997
0.0779821
0.0784669
0.0789542
0.079444
0.0799362
0.0804309
0.0809281
0.0814277
0.0819299
0.0824345
0.0829417
0.0834514
0.0839636
0.0844784
0.0849956
0.0855155
0.0860379
0.0865629
0.0870904
0.0876205
0.0881533
0.0886886
0.0892265
0.0897671
0.0903103
0.0908561
0.0914046
0.0919557
0.0925094
0.0930659
0.093625
0.0941868
0.0947513
0.0953184
0.0958883
0.0964609
0.0970363
0.0976143
0.0981951
0.0987787
0.0993649
0.099954
0.100546
0.10114
0.101738
0.102338
0.102941
0.103547
0.104155
0.104767
0.105381
0.105998
0.106618
0.107241
0.107867
0.108495
0.109127
0.109761
0.110398
0.111038
0.111681
0.112327
0.112976
0.113628
0.114282
0.11494
0.115601
0.116264
0.116931
0.1176
0.118273
0.118948
0.119627
0.120308
0.120992
0.12168
0.12237
0.123064
0.12376
0.12446
0.125162
0.125868
0.126577
0.127289
0.128003
0.128721
0.129442
0.130166
0.130893
0.131624
0.132357
0.133093
0.133833
0.134576
0.135321
0.13607
0.136822
0.137577
0.138336
0.139097
0.139862
0.14063
0.1414
0.142174
0.142952
0.143732
0.144516
0.145302
0.146092
0.146886
0.147682
0.148481
0.149284
0.15009
0.150899
0.151711
0.152527
0.153346
0.154168
0.154993
0.155821
0.156653
0.157487
0.158325
0.159167
0.160011
0.160859
0.16171
0.162564
0.163421
0.164282
0.165146
0.166013
0.166883
0.167756
0.168633
0.169513
0.170396
0.171282
0.172172
0.173065
0.173961
0.17486
0.175762
0.176668
0.177577
0.178489
0.179404
0.180322
0.181244
0.182169
0.183097
0.184028
0.184962
0.185899
0.18684
0.187784
0.188731
0.189681
0.190634
0.19159
0.192549
0.193512
0.194478
0.195446
0.196418
0.197393
0.198371
0.199352
0.200335
0.201322
0.202312
0.203305
0.204301
0.2053
0.206302
0.207307
0.208315
0.209325
0.210339
0.211356
0.212375
0.213397
0.214422
0.21545
0.216481
0.217514
0.21855
0.219589
0.220631
0.221675
0.222722
0.223772
0.224824
0.225879
0.226936
0.227996
0.229059
0.230124
0.231192
0.232262
0.233334
0.234409
0.235486
0.236565
0.237647
0.238731
0.239817
0.240906
0.241997
0.243089
0.244184
0.245281
0.24638
0.247481
0.248584
0.249689
0.250795
0.251904
0.253014
0.254126
0.255239
0.256354
0.257471
0.25859
0.259709
0.260831
0.261953
0.263077
0.264203
0.265329
0.266457
0.267585
0.268715
0.269846
0.270978
0.27211
0.273244
0.274378
0.275513
0.276648
0.277784
0.278921
0.280058
0.281195
0.282332
0.28347
0.284608
0.285746
0.286883
0.288021
0.289159
0.290296
0.291432
0.292569
0.293705
0.29484
0.295974
0.297108
0.29824
0.299372
0.300503
0.301632
0.30276
0.303887
0.305012
0.306136
0.307258
0.308378
0.309496
0.310612
0.311726
0.312838
0.313948
0.315055
0.316159
0.317261
0.31836
0.319456
0.320549
0.321639
0.322725
0.323809
0.324888
0.325964
0.327036
0.328104
0.329168
0.330228
0.331284
0.332335
0.333381
0.334423
0.33546
0.336492
0.337519
0.338541
0.339557
0.340568
0.341573
0.342572
0.343565
0.344552
0.345533
0.346508
0.347476
0.348437
0.349392
0.350339
0.35128
0.352214
0.35314
0.354058
0.354969
0.355873
0.356768
0.357656
0.358535
0.359406
0.360269
0.361123
0.361969
0.362806
0.363634
0.364453
0.365263
0.366063
0.366855
0.367637
0.368409
0.369172
0.369926
0.370669
0.371403
0.372126
0.37284
0.373543
0.374236
0.374919
0.375592
0.376254
0.376906
0.377547
0.378178
0.378798
0.379408
0.380007
0.380595
0.381173
0.38174
0.382296
0.382841
0.383376
0.3839
0.384413
0.384916
0.385408
0.38589
0.386361
0.386821
0.387271
0.38771
0.388139
0.388558
0.388966
0.389365
0.389753
0.390131
0.390499
0.390858
0.391206
0.391545
0.391875
0.392195
0.392506
0.392808
0.3931
0.393384
0.393659
0.393926
0.394184
0.394433
0.394675
0.394908
0.395133
0.395351
0.395561
0.395764
0.395959
0.396147
0.396329
0.396503
0.396671
0.396832
0.396987
0.397136
0.397279
0.397416
0.397548
0.397674
0.397794
0.39791
0.39802
0.398126
0.398227
0.398323
0.398415
0.398503
0.398586
0.398666
0.398742
0.398814
0.398883
0.398948
0.39901
0.399069
0.399124
0.399177
0.399227
0.399275
0.39932
0.399362
0.399403
0.39944
0.399476
0.39951
0.399542
0.399572
0.3996
0.399627
0.399652
0.399676
0.399698
0.399718
0.399738
0.399756
0.399773
0.399789
0.399804
0.399818
0.399832
0.399844
0.399855
0.399866
0.399876
0.399885
0.399894
0.399902
0.39991
0.399917
0.399923
0.399929
0.399935
0.39994
0.399945
0.399949
0.399953
0.399957
0.399961
0.399964
0.399967
0.39997
0.399972
0.399974
0.399977
0.399979
0.39998
0.399982
0.399984
0.399985
0.399986
0.399988
0.399989
0.39999
0.399991
0.399992
0.399992
0.399993
0.399994
0.399994
0.399995
0.399995
0.399996
0.399996
0.399997
0.399997
0.399997
0.399997
0.399998
0.399998
0.399998
0.399998
0.399998
0.399999
0.399999
0.399999
0.399999
0.399999
0.399999
0.399999
0.399999
0.399999
0.399999
0.4
0.4
0.4
0.4
0.4
0.4
0.4
0.4
0.4
0.4
0.4
0.4
0.4
0.4
0.4
0.4
0.4
0.4
0.4
0.4
0.4
0.4
0.4
0.4
0.4
0.4
0.4
0.4
0.4
0.4
0.4
0.4
0.4
0.4
0.4
0.4
0.4
0.4
0.4
0.4
0.4
0.4
0.4
0.4
0.4
0.4
0.4
0.4
0.4
0.4
0.4
0.4
0.4
0.4
0.4
0.4
0.4
0.4
0.4
0.4
0.4
0.4
0.4
0.4
0.4
0.4
0.4
0.4
0.4
0.4
0.4
0.4
0.4
0.4
0.4
0.4
0.4
0.4
0.4
0.4
0.4
0.4
0.4
0.4
0.4
0.4
0.4
0.4
0.4
0.4
0.4
0.4
0.4
0.4
0.4
0.4
0.4
0.4
0.4
0.4
0.4
0.4
0.4
0.4
0.4
0.4
0.4
0.4
0.4
0.4
0.4
0.4
0.4
0.4
0.4
0.4
0.4
0.4
0.4
0.4
0.4
0.4
0.4
0.4
0.4
0.4
0.4
0.4
0.4
0.4
0.4
0.4
0.4
0.4
0.4
0.4
0.4
0.4
0.4
0.4
0.4
0.4
0.4
0.4
0.4
0.4
0.4
0.4
0.4
0.4
0.4
0.4
0.4
0.4
0.4
0.4
0.4
0.4
0.4
0.4
0.4
0.4
0.4
0.4
0.4
0.4
0.4
0.4
0.4
0.4
0.4
0.4
0.4
0.4
0.4
0.4
0.4
0.4
0.4
0.4
0.4
0.4
0.4
0.4
0.4
0.4
0.4
0.4
0.4
0.4
0.4
0.4
0.4
0.4
0.4
0.4
0.4
0.4
0.4
0.4
0.4
0.4
0.4
0.4
0.4
0.4
0.4
0.4
0.4
0.4
0.4
0.4
0.4
0.4
0.4
0.4
0.4
0.4
0.4
0.4
0.4
0.4
0.4
0.4
0.4
0.4
0.4
0.4
0.4
0.4
0.4
0.4
0.4
0.4
0.4
0.4
0.4
0.4
0.4
0.4
0.4
0.4
0.4
0.4
0.4
0.4
0.4
0.4
0.4
0.4
0.4
0.4
0.4
0.4
0.4
0.4
0.4
0.4
0.4
0.4
0.4
0.4
0.4
0.4
0.4
0.4
0.4
0.4
0.4
0.4
0.4
0.4
0.4
0.4
0.4
0.4
0.4
0.4
0.4
0.4
0.4
0.4
0.4
0.4
0.4
0.4
0.4
0.4
0.4
0.4
0.4
0.4
0.4
0.4
0.4
0.4
0.4
0.4
0.4
0.4
0.4
0.4
0.4
0.4
0.4
0.4
0.4
0.4
0.4
0.4
0.4
0.4
0.4
0.4
0.4
0.4
0.4
0.4
0.4
0.4
0.4
0.4
0.4
0.4
0.4
0.4
0.4
0.4
0.4
0.4
0.4
0.4
0.4
0.4
0.4
0.4
0.4
0.4
0.4
0.4
0.4
0.4
0.4
0.4
0.4
0.4
0.4
0.4
0.4
0.4
0.4
0.4
0.4
0.4
0.4
0.4
0.4
0.4
0.4
0.4
0.4
0.4
0.4
0.4
0.4
0.4
0.4
0.4
0.4
0.4
0.4
0.4
0.4
0.4
0.4
0.4
0.4
0.4
0.4
0.4
0.4
0.4
0.4
0.4
0.4
0.4
0.4
0.4
0.4
0.4
0.4
0.4
0.4
0.4
0.4
0.4
0.4
0.4
0.4
0.4
0.4
0.4
0.4
0.4
0.4
0.4
0.4
0.4
0.4
0.4
0.4
0.4
0.4
0.4
0.4
0.4
0.4
0.4
0.4
0.4
0.4
0.4
0.4
0.4
0.4
0.4
0.4
0.4
0.4
0.4
0.4
0.4
0.4
0.4
0.4
0.4
0.4
0.4
0.4
0.4
0.4
0.4
0.4
0.4
0.4
0.4
0.4
0.4
0.4
0.4
0.4
0.4
0.4
0.4
0.4
0.4
0.4
0.4
0.4
0.4
0.4
0.4
0.4
0.4
0.4
0.4
0.4
0.4
0.4
0.4
0.4
0.4
0.4
0.4
0.4
0.4
0.4
0.4
0.4
0.4
0.4
0.4
0.4
0.4
0.4
0.4
0.4
0.4
0.4
0.4
0.4
0.4
0.4
0.4
0.4
0.4
0.4
0.4
0.4
0.4
0.4
0.4
0.4
0.4
0.4
0.4
0.4
0.4
0.4
0.4
0.4
0.4
0.4
0.4
0.4
0.4
0.4
0.4
0.4
0.4
0.4
0.4
0.4
0.4
0.4
0.4
0.4
0.4
0.4
0.4
0.4
0.4
0.4
)
;

boundaryField
{
    sides
    {
        type            zeroGradient;
    }
    empty1
    {
        type            empty;
    }
    empty2
    {
        type            empty;
    }
}


// ************************************************************************* //
