/*--------------------------------*- C++ -*----------------------------------*\
| =========                 |                                                 |
| \\      /  F ield         | OpenFOAM: The Open Source CFD Toolbox           |
|  \\    /   O peration     | Version:  4.1                                   |
|   \\  /    A nd           | Web:      www.OpenFOAM.org                      |
|    \\/     M anipulation  |                                                 |
\*---------------------------------------------------------------------------*/
FoamFile
{
    version     2.0;
    format      ascii;
    class       volScalarField;
    location    "0.1";
    object      rho;
}
// * * * * * * * * * * * * * * * * * * * * * * * * * * * * * * * * * * * * * //

dimensions      [1 -3 0 0 0 0 0];

internalField   nonuniform List<scalar> 
3200
(
0.999943
0.999943
0.999943
0.999943
0.999943
0.999943
0.999943
0.999943
0.999943
0.999943
0.999943
0.999943
0.999943
0.999943
0.999943
0.999943
0.999943
0.999943
0.999943
0.999943
0.999943
0.999943
0.999943
0.999943
0.999943
0.999943
0.999943
0.999943
0.999943
0.999943
0.999943
0.999943
0.999943
0.999943
0.999943
0.999943
0.999943
0.999943
0.999943
0.999943
0.999943
0.999943
0.999943
0.999943
0.999943
0.999943
0.999943
0.999943
0.999943
0.999943
0.999943
0.999943
0.999943
0.999943
0.999943
0.999943
0.999943
0.999943
0.999943
0.999943
0.999943
0.999943
0.999943
0.999943
0.999943
0.999943
0.999943
0.999943
0.999943
0.999943
0.999943
0.999943
0.999943
0.999943
0.999943
0.999943
0.999943
0.999943
0.999943
0.999943
0.999943
0.999943
0.999943
0.999943
0.999943
0.999943
0.999943
0.999943
0.999943
0.999943
0.999943
0.999943
0.999943
0.999943
0.999943
0.999943
0.999943
0.999943
0.999943
0.999943
0.999943
0.999943
0.999943
0.999943
0.999943
0.999943
0.999943
0.999943
0.999943
0.999943
0.999943
0.999943
0.999943
0.999943
0.999943
0.999943
0.999943
0.999943
0.999943
0.999943
0.999943
0.999943
0.999943
0.999943
0.999943
0.999943
0.999943
0.999943
0.999943
0.999943
0.999943
0.999943
0.999943
0.999943
0.999943
0.999943
0.999943
0.999943
0.999943
0.999943
0.999943
0.999943
0.999943
0.999943
0.999943
0.999943
0.999943
0.999943
0.999943
0.999943
0.999943
0.999943
0.999943
0.999943
0.999943
0.999943
0.999943
0.999943
0.999943
0.999943
0.999943
0.999943
0.999943
0.999943
0.999943
0.999943
0.999943
0.999943
0.999943
0.999943
0.999943
0.999943
0.999943
0.999943
0.999943
0.999943
0.999943
0.999943
0.999943
0.999943
0.999943
0.999943
0.999943
0.999943
0.999943
0.999943
0.999943
0.999943
0.999943
0.999943
0.999943
0.999943
0.999943
0.999943
0.999943
0.999943
0.999943
0.999943
0.999943
0.999943
0.999943
0.999943
0.999943
0.999943
0.999943
0.999943
0.999943
0.999943
0.999943
0.999943
0.999943
0.999943
0.999943
0.999943
0.999943
0.999943
0.999943
0.999943
0.999943
0.999943
0.999943
0.999943
0.999943
0.999943
0.999943
0.999943
0.999943
0.999943
0.999943
0.999943
0.999943
0.999943
0.999943
0.999943
0.999943
0.999943
0.999943
0.999943
0.999943
0.999943
0.999943
0.999943
0.999943
0.999943
0.999943
0.999943
0.999943
0.999943
0.999943
0.999943
0.999943
0.999943
0.999943
0.999943
0.999943
0.999943
0.999943
0.999943
0.999943
0.999943
0.999943
0.999943
0.999943
0.999943
0.999943
0.999943
0.999943
0.999943
0.999943
0.999943
0.999943
0.999943
0.999943
0.999943
0.999943
0.999943
0.999943
0.999943
0.999943
0.999943
0.999943
0.999943
0.999943
0.999943
0.999943
0.999943
0.999943
0.999943
0.999943
0.999943
0.999943
0.999943
0.999943
0.999943
0.999943
0.999943
0.999943
0.999943
0.999943
0.999943
0.999943
0.999943
0.999943
0.999943
0.999943
0.999943
0.999943
0.999943
0.999943
0.999943
0.999943
0.999943
0.999943
0.999943
0.999943
0.999943
0.999943
0.999943
0.999943
0.999943
0.999943
0.999943
0.999943
0.999943
0.999943
0.999943
0.999943
0.999943
0.999943
0.999943
0.999943
0.999943
0.999943
0.999943
0.999943
0.999943
0.999943
0.999943
0.999943
0.999943
0.999943
0.999943
0.999943
0.999943
0.999943
0.999943
0.999943
0.999943
0.999943
0.999943
0.999943
0.999943
0.999943
0.999943
0.999943
0.999943
0.999943
0.999943
0.999943
0.999943
0.999943
0.999943
0.999943
0.999943
0.999943
0.999943
0.999943
0.999943
0.999943
0.999943
0.999943
0.999943
0.999943
0.999943
0.999943
0.999943
0.999943
0.999943
0.999943
0.999943
0.999943
0.999943
0.999943
0.999943
0.999943
0.999943
0.999943
0.999943
0.999943
0.999943
0.999943
0.999943
0.999943
0.999943
0.999943
0.999943
0.999943
0.999943
0.999943
0.999943
0.999943
0.999943
0.999943
0.999943
0.999943
0.999943
0.999943
0.999943
0.999943
0.999943
0.999943
0.999943
0.999943
0.999943
0.999943
0.999943
0.999943
0.999943
0.999943
0.999943
0.999943
0.999943
0.999943
0.999943
0.999943
0.999943
0.999943
0.999943
0.999943
0.999943
0.999943
0.999943
0.999943
0.999943
0.999943
0.999943
0.999943
0.999943
0.999943
0.999943
0.999943
0.999943
0.999943
0.999943
0.999943
0.999943
0.999943
0.999943
0.999943
0.999943
0.999943
0.999943
0.999943
0.999943
0.999943
0.999943
0.999943
0.999943
0.999943
0.999943
0.999943
0.999943
0.999943
0.999943
0.999943
0.999943
0.999943
0.999943
0.999943
0.999943
0.999943
0.999943
0.999943
0.999943
0.999943
0.999943
0.999943
0.999943
0.999943
0.999943
0.999943
0.999943
0.999943
0.999943
0.999943
0.999943
0.999943
0.999943
0.999943
0.999943
0.999943
0.999943
0.999943
0.999943
0.999943
0.999943
0.999943
0.999943
0.999943
0.999943
0.999943
0.999943
0.999943
0.999943
0.999943
0.999943
0.999943
0.999943
0.999943
0.999943
0.999943
0.999943
0.999943
0.999943
0.999943
0.999943
0.999943
0.999943
0.999943
0.999943
0.999943
0.999943
0.999943
0.999943
0.999943
0.999943
0.999943
0.999943
0.999943
0.999943
0.999943
0.999943
0.999943
0.999943
0.999942
0.999942
0.999942
0.999942
0.999942
0.999942
0.999941
0.999941
0.999941
0.999941
0.99994
0.99994
0.99994
0.999939
0.999939
0.999938
0.999938
0.999937
0.999937
0.999936
0.999935
0.999934
0.999933
0.999932
0.999931
0.99993
0.999928
0.999927
0.999925
0.999923
0.999922
0.999919
0.999917
0.999915
0.999912
0.999909
0.999905
0.999902
0.999898
0.999894
0.999889
0.999884
0.999879
0.999873
0.999867
0.99986
0.999853
0.999845
0.999836
0.999827
0.999817
0.999807
0.999795
0.999783
0.999769
0.999755
0.99974
0.999723
0.999705
0.999686
0.999666
0.999644
0.999621
0.999596
0.999569
0.99954
0.99951
0.999477
0.999443
0.999406
0.999366
0.999324
0.99928
0.999232
0.999182
0.999129
0.999072
0.999012
0.998948
0.99888
0.998809
0.998733
0.998653
0.998568
0.998479
0.998385
0.998285
0.998181
0.99807
0.997954
0.997832
0.997703
0.997568
0.997426
0.997277
0.99712
0.996956
0.996784
0.996604
0.996416
0.996219
0.996013
0.995797
0.995572
0.995338
0.995093
0.994837
0.994571
0.994294
0.994006
0.993706
0.993394
0.99307
0.992733
0.992384
0.992021
0.991645
0.991256
0.990852
0.990434
0.990002
0.989555
0.989092
0.988615
0.988121
0.987612
0.987087
0.986546
0.985987
0.985412
0.98482
0.984211
0.983584
0.98294
0.982277
0.981597
0.980898
0.980181
0.979445
0.97869
0.977917
0.977124
0.976312
0.975481
0.974631
0.973761
0.972872
0.971963
0.971034
0.970085
0.969117
0.968128
0.96712
0.966092
0.965044
0.963976
0.962888
0.96178
0.960652
0.959504
0.958337
0.957149
0.955942
0.954716
0.953469
0.952204
0.950918
0.949614
0.94829
0.946947
0.945585
0.944205
0.942805
0.941388
0.939951
0.938496
0.937024
0.935533
0.934024
0.932498
0.930954
0.929394
0.927815
0.926221
0.924609
0.922981
0.921336
0.919676
0.917999
0.916307
0.914599
0.912876
0.911138
0.909385
0.907618
0.905836
0.90404
0.902229
0.900406
0.898568
0.896718
0.894854
0.892977
0.891088
0.889186
0.887273
0.885347
0.88341
0.881461
0.879501
0.877529
0.875547
0.873555
0.871552
0.869539
0.867516
0.865483
0.863441
0.861389
0.859329
0.857259
0.855181
0.853095
0.851
0.848897
0.846787
0.844669
0.842543
0.840411
0.838271
0.836125
0.833971
0.831812
0.829646
0.827474
0.825297
0.823114
0.820925
0.818731
0.816531
0.814327
0.812118
0.809905
0.807687
0.805464
0.803238
0.801008
0.798773
0.796536
0.794294
0.79205
0.789802
0.787551
0.785298
0.783041
0.780782
0.778521
0.776257
0.773991
0.771723
0.769453
0.767182
0.764909
0.762634
0.760358
0.75808
0.755802
0.753522
0.751241
0.74896
0.746678
0.744395
0.742112
0.739829
0.737545
0.735261
0.732978
0.730694
0.72841
0.726127
0.723844
0.721561
0.719279
0.716998
0.714717
0.712437
0.710158
0.70788
0.705603
0.703327
0.701052
0.698779
0.696507
0.694236
0.691967
0.6897
0.687434
0.68517
0.682908
0.680648
0.67839
0.676133
0.673879
0.671627
0.669377
0.66713
0.664884
0.662641
0.660401
0.658163
0.655927
0.653695
0.651464
0.649237
0.647012
0.64479
0.642571
0.640355
0.638142
0.635932
0.633725
0.631521
0.62932
0.627123
0.624928
0.622737
0.620549
0.618365
0.616184
0.614006
0.611832
0.609661
0.607494
0.60533
0.60317
0.601014
0.598861
0.596712
0.594567
0.592425
0.590288
0.588154
0.586024
0.583897
0.581775
0.579657
0.577543
0.575432
0.573326
0.571223
0.569125
0.567031
0.564941
0.562855
0.560773
0.558696
0.556622
0.554553
0.552488
0.550428
0.548371
0.546319
0.544271
0.542228
0.540189
0.538154
0.536123
0.534097
0.532076
0.530059
0.528046
0.526038
0.524034
0.522035
0.52004
0.51805
0.516064
0.514083
0.512106
0.510134
0.508167
0.506204
0.504245
0.502291
0.500342
0.498398
0.496458
0.494523
0.492592
0.490666
0.488745
0.486828
0.484916
0.483009
0.481107
0.479209
0.477316
0.475427
0.473544
0.471665
0.469791
0.467921
0.466057
0.464197
0.462341
0.460491
0.458645
0.456804
0.454968
0.453137
0.45131
0.449488
0.447671
0.445859
0.444052
0.442249
0.440451
0.438658
0.43687
0.435086
0.433308
0.431534
0.429765
0.428001
0.426241
0.424487
0.422737
0.420992
0.419252
0.417516
0.415786
0.41406
0.412339
0.410623
0.408911
0.407205
0.405503
0.403806
0.402114
0.400427
0.398744
0.397066
0.395394
0.393725
0.392062
0.390404
0.38875
0.387101
0.385457
0.383817
0.382183
0.380553
0.378928
0.377307
0.375692
0.374081
0.372475
0.370874
0.369278
0.367686
0.366099
0.364517
0.362939
0.361367
0.359799
0.358235
0.356677
0.355123
0.353574
0.35203
0.35049
0.348955
0.347425
0.345899
0.344378
0.342862
0.341351
0.339844
0.338342
0.336844
0.335352
0.333863
0.33238
0.330901
0.329427
0.327957
0.326492
0.325032
0.323577
0.322125
0.320679
0.319237
0.3178
0.316367
0.314939
0.313516
0.312097
0.310683
0.309273
0.307868
0.306467
0.305071
0.30368
0.302293
0.30091
0.299532
0.298159
0.29679
0.295425
0.294065
0.29271
0.291359
0.290012
0.28867
0.287333
0.286
0.284671
0.283347
0.282027
0.280712
0.279401
0.278094
0.276792
0.275494
0.274201
0.272912
0.271628
0.270348
0.269072
0.2678
0.266533
0.26527
0.264012
0.262758
0.261508
0.260263
0.259022
0.257785
0.256552
0.255324
0.2541
0.25288
0.251665
0.250454
0.249247
0.248044
0.246845
0.245651
0.244461
0.243275
0.242094
0.240916
0.239743
0.238574
0.237409
0.236248
0.235092
0.233939
0.232791
0.231647
0.230507
0.229371
0.228239
0.227111
0.225988
0.224868
0.223753
0.222641
0.221534
0.220431
0.219332
0.218236
0.217145
0.216058
0.214975
0.213896
0.212821
0.21175
0.210682
0.209619
0.20856
0.207505
0.206454
0.205406
0.204363
0.203323
0.202288
0.201256
0.200228
0.199204
0.198184
0.197168
0.196156
0.195148
0.194143
0.193142
0.192145
0.191152
0.190163
0.189178
0.188196
0.187218
0.186244
0.185274
0.184308
0.183345
0.182386
0.181431
0.180479
0.179532
0.178588
0.177647
0.176711
0.175778
0.174849
0.173923
0.173001
0.172083
0.171169
0.170258
0.169351
0.168447
0.167547
0.166651
0.165758
0.164869
0.163983
0.163101
0.162223
0.161348
0.160477
0.159609
0.158745
0.157884
0.157027
0.156174
0.155324
0.154477
0.153634
0.152794
0.151958
0.151126
0.150297
0.149471
0.148649
0.14783
0.147014
0.146202
0.145394
0.144589
0.143787
0.142989
0.142194
0.141402
0.140614
0.139829
0.139047
0.138269
0.137494
0.136723
0.135955
0.13519
0.134428
0.13367
0.132915
0.132163
0.131415
0.130669
0.129927
0.129189
0.128453
0.127721
0.126992
0.126266
0.125544
0.124824
0.124108
0.123395
0.122685
0.121979
0.121275
0.120575
0.119877
0.119183
0.118492
0.117805
0.11712
0.116438
0.11576
0.115084
0.114412
0.113743
0.113077
0.112413
0.111753
0.111096
0.110442
0.109791
0.109143
0.108498
0.107856
0.107217
0.106581
0.105948
0.105318
0.104691
0.104067
0.103446
0.102828
0.102212
0.1016
0.10099
0.100384
0.0997803
0.0991795
0.0985816
0.0979866
0.0973945
0.0968052
0.0962188
0.0956352
0.0950544
0.0944765
0.0939014
0.0933291
0.0927597
0.092193
0.0916291
0.091068
0.0905097
0.0899541
0.0894013
0.0888512
0.0883039
0.0877594
0.0872175
0.0866784
0.086142
0.0856082
0.0850772
0.0845489
0.0840232
0.0835003
0.0829799
0.0824623
0.0819473
0.0814349
0.0809252
0.0804181
0.0799136
0.0794117
0.0789124
0.0784157
0.0779216
0.0774301
0.0769411
0.0764547
0.0759709
0.0754896
0.0750109
0.0745346
0.074061
0.0735898
0.0731211
0.0726549
0.0721912
0.0717301
0.0712713
0.0708151
0.0703613
0.06991
0.0694611
0.0690146
0.0685706
0.068129
0.0676898
0.067253
0.0668187
0.0663867
0.0659571
0.0655298
0.065105
0.0646825
0.0642623
0.0638445
0.0634291
0.0630159
0.0626051
0.0621966
0.0617905
0.0613866
0.060985
0.0605857
0.0601886
0.0597939
0.0594014
0.0590111
0.0586231
0.0582374
0.0578539
0.0574726
0.0570935
0.0567166
0.056342
0.0559695
0.0555992
0.0552311
0.0548652
0.0545015
0.0541399
0.0537805
0.0534232
0.0530681
0.0527151
0.0523642
0.0520154
0.0516688
0.0513243
0.0509818
0.0506415
0.0503033
0.0499671
0.049633
0.049301
0.0489711
0.0486432
0.0483173
0.0479935
0.0476718
0.0473521
0.0470344
0.0467187
0.0464051
0.0460935
0.0457839
0.0454763
0.0451707
0.0448671
0.0445654
0.0442658
0.0439682
0.0436725
0.0433788
0.0430871
0.0427973
0.0425095
0.0422237
0.0419399
0.041658
0.041378
0.0411
0.040824
0.0405499
0.0402778
0.0400076
0.0397394
0.0394731
0.0392088
0.0389465
0.0386861
0.0384276
0.0381711
0.0379166
0.0376641
0.0374135
0.0371649
0.0369183
0.0366736
0.036431
0.0361904
0.0359518
0.0357152
0.0354806
0.0352481
0.0350177
0.0347893
0.0345631
0.0343389
0.0341169
0.033897
0.0336792
0.0334637
0.0332504
0.0330393
0.0328304
0.0326239
0.0324197
0.0322178
0.0320183
0.0318213
0.0316267
0.0314347
0.0312451
0.0310582
0.030874
0.0306924
0.0305135
0.0303375
0.0301643
0.029994
0.0298266
0.0296623
0.029501
0.0293428
0.0291879
0.0290361
0.0288876
0.0287424
0.0286006
0.0284622
0.0283272
0.0281956
0.0280675
0.0279428
0.0278215
0.0277037
0.0275892
0.027478
0.0273701
0.0272654
0.0271638
0.0270651
0.0269693
0.0268762
0.0267857
0.0266976
0.0266118
0.026528
0.0264462
0.0263661
0.0262875
0.0262103
0.0261343
0.0260594
0.0259854
0.0259121
0.0258394
0.0257672
0.0256953
0.0256237
0.0255523
0.0254809
0.0254096
0.0253382
0.0252668
0.0251952
0.0251234
0.0250515
0.0249793
0.0249069
0.0248342
0.0247613
0.0246882
0.0246148
0.0245412
0.0244673
0.0243931
0.0243188
0.0242441
0.0241693
0.0240942
0.0240189
0.0239433
0.0238676
0.0237916
0.0237154
0.023639
0.0235624
0.0234856
0.0234085
0.0233313
0.0232539
0.0231762
0.0230984
0.0230203
0.022942
0.0228635
0.0227848
0.0227058
0.0226267
0.0225473
0.0224677
0.0223879
0.0223078
0.0222275
0.022147
0.0220662
0.0219852
0.021904
0.0218225
0.0217408
0.0216588
0.0215766
0.0214941
0.0214115
0.0213285
0.0212453
0.0211619
0.0210783
0.0209945
0.0209104
0.0208261
0.0207417
0.020657
0.0205722
0.0204872
0.0204021
0.0203169
0.0202315
0.0201461
0.0200607
0.0199752
0.0198898
0.0198044
0.0197191
0.0196339
0.0195489
0.0194642
0.0193797
0.0192957
0.019212
0.0191288
0.0190462
0.0189642
0.018883
0.0188026
0.0187231
0.0186447
0.0185674
0.0184914
0.0184168
0.0183436
0.0182721
0.0182024
0.0181346
0.0180688
0.0180053
0.0179441
0.0178855
0.0178295
0.0177762
0.017726
0.0176788
0.0176348
0.0175941
0.0175568
0.017523
0.0174928
0.0174661
0.017443
0.0174234
0.0174072
0.0173942
0.0173844
0.0173773
0.0173729
0.0173706
0.0173702
0.0173712
0.0173733
0.0173761
0.017379
0.0173819
0.0173844
0.0173861
0.0173871
0.0173871
0.0173861
0.0173844
0.0173819
0.017379
0.0173761
0.0173733
0.0173712
0.0173702
0.0173706
0.0173729
0.0173773
0.0173844
0.0173942
0.0174072
0.0174234
0.017443
0.0174661
0.0174928
0.017523
0.0175568
0.0175941
0.0176348
0.0176788
0.017726
0.0177762
0.0178295
0.0178855
0.0179441
0.0180053
0.0180688
0.0181346
0.0182024
0.0182721
0.0183436
0.0184168
0.0184914
0.0185674
0.0186447
0.0187231
0.0188026
0.018883
0.0189642
0.0190462
0.0191288
0.019212
0.0192957
0.0193797
0.0194642
0.0195489
0.0196339
0.0197191
0.0198044
0.0198898
0.0199752
0.0200607
0.0201461
0.0202315
0.0203169
0.0204021
0.0204872
0.0205722
0.020657
0.0207417
0.0208261
0.0209104
0.0209945
0.0210783
0.0211619
0.0212453
0.0213285
0.0214115
0.0214941
0.0215766
0.0216588
0.0217408
0.0218225
0.021904
0.0219852
0.0220662
0.022147
0.0222275
0.0223078
0.0223879
0.0224677
0.0225473
0.0226267
0.0227058
0.0227848
0.0228635
0.022942
0.0230203
0.0230984
0.0231762
0.0232539
0.0233313
0.0234085
0.0234856
0.0235624
0.023639
0.0237154
0.0237916
0.0238676
0.0239433
0.0240189
0.0240942
0.0241693
0.0242441
0.0243188
0.0243931
0.0244673
0.0245412
0.0246148
0.0246882
0.0247613
0.0248342
0.0249069
0.0249793
0.0250515
0.0251234
0.0251952
0.0252668
0.0253382
0.0254096
0.0254809
0.0255523
0.0256237
0.0256953
0.0257672
0.0258394
0.0259121
0.0259854
0.0260594
0.0261343
0.0262103
0.0262875
0.0263661
0.0264462
0.026528
0.0266118
0.0266976
0.0267857
0.0268762
0.0269693
0.0270651
0.0271638
0.0272654
0.0273701
0.027478
0.0275892
0.0277037
0.0278215
0.0279428
0.0280675
0.0281956
0.0283272
0.0284622
0.0286006
0.0287424
0.0288876
0.0290361
0.0291879
0.0293428
0.029501
0.0296623
0.0298266
0.029994
0.0301643
0.0303375
0.0305135
0.0306924
0.030874
0.0310582
0.0312451
0.0314347
0.0316267
0.0318213
0.0320183
0.0322178
0.0324197
0.0326239
0.0328304
0.0330393
0.0332504
0.0334637
0.0336792
0.033897
0.0341169
0.0343389
0.0345631
0.0347893
0.0350177
0.0352481
0.0354806
0.0357152
0.0359518
0.0361904
0.036431
0.0366736
0.0369183
0.0371649
0.0374135
0.0376641
0.0379166
0.0381711
0.0384276
0.0386861
0.0389465
0.0392088
0.0394731
0.0397394
0.0400076
0.0402778
0.0405499
0.040824
0.0411
0.041378
0.041658
0.0419399
0.0422237
0.0425095
0.0427973
0.0430871
0.0433788
0.0436725
0.0439682
0.0442658
0.0445654
0.0448671
0.0451707
0.0454763
0.0457839
0.0460935
0.0464051
0.0467187
0.0470344
0.0473521
0.0476718
0.0479935
0.0483173
0.0486432
0.0489711
0.049301
0.049633
0.0499671
0.0503033
0.0506415
0.0509818
0.0513243
0.0516688
0.0520154
0.0523642
0.0527151
0.0530681
0.0534232
0.0537805
0.0541399
0.0545015
0.0548652
0.0552311
0.0555992
0.0559695
0.056342
0.0567166
0.0570935
0.0574726
0.0578539
0.0582374
0.0586231
0.0590111
0.0594014
0.0597939
0.0601886
0.0605857
0.060985
0.0613866
0.0617905
0.0621966
0.0626051
0.0630159
0.0634291
0.0638445
0.0642623
0.0646825
0.065105
0.0655298
0.0659571
0.0663867
0.0668187
0.067253
0.0676898
0.068129
0.0685706
0.0690146
0.0694611
0.06991
0.0703613
0.0708151
0.0712713
0.0717301
0.0721912
0.0726549
0.0731211
0.0735898
0.074061
0.0745346
0.0750109
0.0754896
0.0759709
0.0764547
0.0769411
0.0774301
0.0779216
0.0784157
0.0789124
0.0794117
0.0799136
0.0804181
0.0809252
0.0814349
0.0819473
0.0824623
0.0829799
0.0835003
0.0840232
0.0845489
0.0850772
0.0856082
0.086142
0.0866784
0.0872175
0.0877594
0.0883039
0.0888512
0.0894013
0.0899541
0.0905097
0.091068
0.0916291
0.092193
0.0927597
0.0933291
0.0939014
0.0944765
0.0950544
0.0956352
0.0962188
0.0968052
0.0973945
0.0979866
0.0985816
0.0991795
0.0997803
0.100384
0.10099
0.1016
0.102212
0.102828
0.103446
0.104067
0.104691
0.105318
0.105948
0.106581
0.107217
0.107856
0.108498
0.109143
0.109791
0.110442
0.111096
0.111753
0.112413
0.113077
0.113743
0.114412
0.115084
0.11576
0.116438
0.11712
0.117805
0.118492
0.119183
0.119877
0.120575
0.121275
0.121979
0.122685
0.123395
0.124108
0.124824
0.125544
0.126266
0.126992
0.127721
0.128453
0.129189
0.129927
0.130669
0.131415
0.132163
0.132915
0.13367
0.134428
0.13519
0.135955
0.136723
0.137494
0.138269
0.139047
0.139829
0.140614
0.141402
0.142194
0.142989
0.143787
0.144589
0.145394
0.146202
0.147014
0.14783
0.148649
0.149471
0.150297
0.151126
0.151958
0.152794
0.153634
0.154477
0.155324
0.156174
0.157027
0.157884
0.158745
0.159609
0.160477
0.161348
0.162223
0.163101
0.163983
0.164869
0.165758
0.166651
0.167547
0.168447
0.169351
0.170258
0.171169
0.172083
0.173001
0.173923
0.174849
0.175778
0.176711
0.177647
0.178588
0.179532
0.180479
0.181431
0.182386
0.183345
0.184308
0.185274
0.186244
0.187218
0.188196
0.189178
0.190163
0.191152
0.192145
0.193142
0.194143
0.195148
0.196156
0.197168
0.198184
0.199204
0.200228
0.201256
0.202288
0.203323
0.204363
0.205406
0.206454
0.207505
0.20856
0.209619
0.210682
0.21175
0.212821
0.213896
0.214975
0.216058
0.217145
0.218236
0.219332
0.220431
0.221534
0.222641
0.223753
0.224868
0.225988
0.227111
0.228239
0.229371
0.230507
0.231647
0.232791
0.233939
0.235092
0.236248
0.237409
0.238574
0.239743
0.240916
0.242094
0.243275
0.244461
0.245651
0.246845
0.248044
0.249247
0.250454
0.251665
0.25288
0.2541
0.255324
0.256552
0.257785
0.259022
0.260263
0.261508
0.262758
0.264012
0.26527
0.266533
0.2678
0.269072
0.270348
0.271628
0.272912
0.274201
0.275494
0.276792
0.278094
0.279401
0.280712
0.282027
0.283347
0.284671
0.286
0.287333
0.28867
0.290012
0.291359
0.29271
0.294065
0.295425
0.29679
0.298159
0.299532
0.30091
0.302293
0.30368
0.305071
0.306467
0.307868
0.309273
0.310683
0.312097
0.313516
0.314939
0.316367
0.3178
0.319237
0.320679
0.322125
0.323577
0.325032
0.326492
0.327957
0.329427
0.330901
0.33238
0.333863
0.335352
0.336844
0.338342
0.339844
0.341351
0.342862
0.344378
0.345899
0.347425
0.348955
0.35049
0.35203
0.353574
0.355123
0.356677
0.358235
0.359799
0.361367
0.362939
0.364517
0.366099
0.367686
0.369278
0.370874
0.372475
0.374081
0.375692
0.377307
0.378928
0.380553
0.382183
0.383817
0.385457
0.387101
0.38875
0.390404
0.392062
0.393725
0.395394
0.397066
0.398744
0.400427
0.402114
0.403806
0.405503
0.407205
0.408911
0.410623
0.412339
0.41406
0.415786
0.417516
0.419252
0.420992
0.422737
0.424487
0.426241
0.428001
0.429765
0.431534
0.433308
0.435086
0.43687
0.438658
0.440451
0.442249
0.444052
0.445859
0.447671
0.449488
0.45131
0.453137
0.454968
0.456804
0.458645
0.460491
0.462341
0.464197
0.466057
0.467921
0.469791
0.471665
0.473544
0.475427
0.477316
0.479209
0.481107
0.483009
0.484916
0.486828
0.488745
0.490666
0.492592
0.494523
0.496458
0.498398
0.500342
0.502291
0.504245
0.506204
0.508167
0.510134
0.512106
0.514083
0.516064
0.51805
0.52004
0.522035
0.524034
0.526038
0.528046
0.530059
0.532076
0.534097
0.536123
0.538154
0.540189
0.542228
0.544271
0.546319
0.548371
0.550428
0.552488
0.554553
0.556622
0.558696
0.560773
0.562855
0.564941
0.567031
0.569125
0.571223
0.573326
0.575432
0.577543
0.579657
0.581775
0.583897
0.586024
0.588154
0.590288
0.592425
0.594567
0.596712
0.598861
0.601014
0.60317
0.60533
0.607494
0.609661
0.611832
0.614006
0.616184
0.618365
0.620549
0.622737
0.624928
0.627123
0.62932
0.631521
0.633725
0.635932
0.638142
0.640355
0.642571
0.64479
0.647012
0.649237
0.651464
0.653695
0.655927
0.658163
0.660401
0.662641
0.664884
0.66713
0.669377
0.671627
0.673879
0.676133
0.67839
0.680648
0.682908
0.68517
0.687434
0.6897
0.691967
0.694236
0.696507
0.698779
0.701052
0.703327
0.705603
0.70788
0.710158
0.712437
0.714717
0.716998
0.719279
0.721561
0.723844
0.726127
0.72841
0.730694
0.732978
0.735261
0.737545
0.739829
0.742112
0.744395
0.746678
0.74896
0.751241
0.753522
0.755802
0.75808
0.760358
0.762634
0.764909
0.767182
0.769453
0.771723
0.773991
0.776257
0.778521
0.780782
0.783041
0.785298
0.787551
0.789802
0.79205
0.794294
0.796536
0.798773
0.801008
0.803238
0.805464
0.807687
0.809905
0.812118
0.814327
0.816531
0.818731
0.820925
0.823114
0.825297
0.827474
0.829646
0.831812
0.833971
0.836125
0.838271
0.840411
0.842543
0.844669
0.846787
0.848897
0.851
0.853095
0.855181
0.857259
0.859329
0.861389
0.863441
0.865483
0.867516
0.869539
0.871552
0.873555
0.875547
0.877529
0.879501
0.881461
0.88341
0.885347
0.887273
0.889186
0.891088
0.892977
0.894854
0.896718
0.898568
0.900406
0.902229
0.90404
0.905836
0.907618
0.909385
0.911138
0.912876
0.914599
0.916307
0.917999
0.919676
0.921336
0.922981
0.924609
0.926221
0.927815
0.929394
0.930954
0.932498
0.934024
0.935533
0.937024
0.938496
0.939951
0.941388
0.942805
0.944205
0.945585
0.946947
0.94829
0.949614
0.950918
0.952204
0.953469
0.954716
0.955942
0.957149
0.958337
0.959504
0.960652
0.96178
0.962888
0.963976
0.965044
0.966092
0.96712
0.968128
0.969117
0.970085
0.971034
0.971963
0.972872
0.973761
0.974631
0.975481
0.976312
0.977124
0.977917
0.97869
0.979445
0.980181
0.980898
0.981597
0.982277
0.98294
0.983584
0.984211
0.98482
0.985412
0.985987
0.986546
0.987087
0.987612
0.988121
0.988615
0.989092
0.989555
0.990002
0.990434
0.990852
0.991256
0.991645
0.992021
0.992384
0.992733
0.99307
0.993394
0.993706
0.994006
0.994294
0.994571
0.994837
0.995093
0.995338
0.995572
0.995797
0.996013
0.996219
0.996416
0.996604
0.996784
0.996956
0.99712
0.997277
0.997426
0.997568
0.997703
0.997832
0.997954
0.99807
0.998181
0.998285
0.998385
0.998479
0.998568
0.998653
0.998733
0.998809
0.99888
0.998948
0.999012
0.999072
0.999129
0.999182
0.999232
0.99928
0.999324
0.999366
0.999406
0.999443
0.999477
0.99951
0.99954
0.999569
0.999596
0.999621
0.999644
0.999666
0.999686
0.999705
0.999723
0.99974
0.999755
0.999769
0.999783
0.999795
0.999807
0.999817
0.999827
0.999836
0.999845
0.999853
0.99986
0.999867
0.999873
0.999879
0.999884
0.999889
0.999894
0.999898
0.999902
0.999905
0.999909
0.999912
0.999915
0.999917
0.999919
0.999922
0.999923
0.999925
0.999927
0.999928
0.99993
0.999931
0.999932
0.999933
0.999934
0.999935
0.999936
0.999937
0.999937
0.999938
0.999938
0.999939
0.999939
0.99994
0.99994
0.99994
0.999941
0.999941
0.999941
0.999941
0.999942
0.999942
0.999942
0.999942
0.999942
0.999942
0.999943
0.999943
0.999943
0.999943
0.999943
0.999943
0.999943
0.999943
0.999943
0.999943
0.999943
0.999943
0.999943
0.999943
0.999943
0.999943
0.999943
0.999943
0.999943
0.999943
0.999943
0.999943
0.999943
0.999943
0.999943
0.999943
0.999943
0.999943
0.999943
0.999943
0.999943
0.999943
0.999943
0.999943
0.999943
0.999943
0.999943
0.999943
0.999943
0.999943
0.999943
0.999943
0.999943
0.999943
0.999943
0.999943
0.999943
0.999943
0.999943
0.999943
0.999943
0.999943
0.999943
0.999943
0.999943
0.999943
0.999943
0.999943
0.999943
0.999943
0.999943
0.999943
0.999943
0.999943
0.999943
0.999943
0.999943
0.999943
0.999943
0.999943
0.999943
0.999943
0.999943
0.999943
0.999943
0.999943
0.999943
0.999943
0.999943
0.999943
0.999943
0.999943
0.999943
0.999943
0.999943
0.999943
0.999943
0.999943
0.999943
0.999943
0.999943
0.999943
0.999943
0.999943
0.999943
0.999943
0.999943
0.999943
0.999943
0.999943
0.999943
0.999943
0.999943
0.999943
0.999943
0.999943
0.999943
0.999943
0.999943
0.999943
0.999943
0.999943
0.999943
0.999943
0.999943
0.999943
0.999943
0.999943
0.999943
0.999943
0.999943
0.999943
0.999943
0.999943
0.999943
0.999943
0.999943
0.999943
0.999943
0.999943
0.999943
0.999943
0.999943
0.999943
0.999943
0.999943
0.999943
0.999943
0.999943
0.999943
0.999943
0.999943
0.999943
0.999943
0.999943
0.999943
0.999943
0.999943
0.999943
0.999943
0.999943
0.999943
0.999943
0.999943
0.999943
0.999943
0.999943
0.999943
0.999943
0.999943
0.999943
0.999943
0.999943
0.999943
0.999943
0.999943
0.999943
0.999943
0.999943
0.999943
0.999943
0.999943
0.999943
0.999943
0.999943
0.999943
0.999943
0.999943
0.999943
0.999943
0.999943
0.999943
0.999943
0.999943
0.999943
0.999943
0.999943
0.999943
0.999943
0.999943
0.999943
0.999943
0.999943
0.999943
0.999943
0.999943
0.999943
0.999943
0.999943
0.999943
0.999943
0.999943
0.999943
0.999943
0.999943
0.999943
0.999943
0.999943
0.999943
0.999943
0.999943
0.999943
0.999943
0.999943
0.999943
0.999943
0.999943
0.999943
0.999943
0.999943
0.999943
0.999943
0.999943
0.999943
0.999943
0.999943
0.999943
0.999943
0.999943
0.999943
0.999943
0.999943
0.999943
0.999943
0.999943
0.999943
0.999943
0.999943
0.999943
0.999943
0.999943
0.999943
0.999943
0.999943
0.999943
0.999943
0.999943
0.999943
0.999943
0.999943
0.999943
0.999943
0.999943
0.999943
0.999943
0.999943
0.999943
0.999943
0.999943
0.999943
0.999943
0.999943
0.999943
0.999943
0.999943
0.999943
0.999943
0.999943
0.999943
0.999943
0.999943
0.999943
0.999943
0.999943
0.999943
0.999943
0.999943
0.999943
0.999943
0.999943
0.999943
0.999943
0.999943
0.999943
0.999943
0.999943
0.999943
0.999943
0.999943
0.999943
0.999943
0.999943
0.999943
0.999943
0.999943
0.999943
0.999943
0.999943
0.999943
0.999943
0.999943
0.999943
0.999943
0.999943
0.999943
0.999943
0.999943
0.999943
0.999943
0.999943
0.999943
0.999943
0.999943
0.999943
0.999943
0.999943
0.999943
0.999943
0.999943
0.999943
0.999943
0.999943
0.999943
0.999943
0.999943
0.999943
0.999943
0.999943
0.999943
0.999943
0.999943
0.999943
0.999943
0.999943
0.999943
0.999943
0.999943
0.999943
0.999943
0.999943
0.999943
0.999943
0.999943
0.999943
0.999943
0.999943
0.999943
0.999943
0.999943
0.999943
0.999943
0.999943
0.999943
0.999943
0.999943
0.999943
0.999943
0.999943
0.999943
0.999943
0.999943
0.999943
0.999943
0.999943
0.999943
0.999943
0.999943
0.999943
0.999943
0.999943
0.999943
0.999943
0.999943
0.999943
0.999943
0.999943
0.999943
0.999943
0.999943
0.999943
0.999943
0.999943
0.999943
0.999943
0.999943
0.999943
0.999943
0.999943
0.999943
0.999943
0.999943
0.999943
0.999943
0.999943
0.999943
0.999943
0.999943
0.999943
0.999943
0.999943
0.999943
0.999943
0.999943
0.999943
0.999943
0.999943
0.999943
0.999943
0.999943
0.999943
0.999943
0.999943
0.999943
0.999943
0.999943
0.999943
0.999943
0.999943
0.999943
0.999943
0.999943
0.999943
0.999943
0.999943
0.999943
0.999943
0.999943
0.999943
0.999943
0.999943
0.999943
0.999943
0.999943
0.999943
0.999943
0.999943
0.999943
0.999943
0.999943
0.999943
0.999943
0.999943
0.999943
0.999943
0.999943
0.999943
0.999943
0.999943
0.999943
0.999943
0.999943
0.999943
0.999943
0.999943
0.999943
0.999943
0.999943
0.999943
0.999943
0.999943
0.999943
0.999943
0.999943
0.999943
0.999943
0.999943
0.999943
0.999943
0.999943
0.999943
0.999943
0.999943
0.999943
0.999943
0.999943
0.999943
0.999943
0.999943
0.999943
0.999943
0.999943
0.999943
0.999943
0.999943
0.999943
0.999943
0.999943
0.999943
0.999943
0.999943
0.999943
0.999943
0.999943
0.999943
0.999943
0.999943
0.999943
0.999943
0.999943
0.999943
0.999943
0.999943
0.999943
0.999943
0.999943
0.999943
0.999943
0.999943
0.999943
0.999943
0.999943
0.999943
0.999943
0.999943
0.999943
0.999943
0.999943
0.999943