/*--------------------------------*- C++ -*----------------------------------*\
| =========                 |                                                 |
| \\      /  F ield         | OpenFOAM: The Open Source CFD Toolbox           |
|  \\    /   O peration     | Version:  4.1                                   |
|   \\  /    A nd           | Web:      www.OpenFOAM.org                      |
|    \\/     M anipulation  |                                                 |
\*---------------------------------------------------------------------------*/
FoamFile
{
    version     2.0;
    format      ascii;
    class       volScalarField;
    location    "0.1";
    object      T;
}
// * * * * * * * * * * * * * * * * * * * * * * * * * * * * * * * * * * * * * //

dimensions      [0 0 0 1 0 0 0];

internalField   nonuniform List<scalar> 
3200
(
1
1
1
1
1
1
1
1
1
1
1
1
1
1
1
1
1
1
1
1
1
1
1
1
1
1
1
1
1
1
1
1
1
1
1
1
1
1
1
1
1
1
1
1
1
1
1
1
1
1
1
1
1
1
1
1
1
1
1
1
1
1
1
1
1
1
1
1
1
1
1
1
1
1
1
1
1
1
1
1
1
1
1
1
1
1
1
1
1
1
1
1
1
1
1
1
1
1
1
1
1
1
1
1
1
1
1
1
1
1
1
1
1
1
1
1
1
1
1
1
1
1
1
1
1
1
1
1
1
1
1
1
1
1
1
1
1
1
1
1
1
1
1
1
1
1
1
1
1
1
1
1
1
1
1
1
1
1
1
1
1
1
1
1
1
1
1
1
1
1
1
1
1
1
1
1
1
1
1
1
1
1
1
1
1
1
1
1
1
1
1
1
1
1
1
1
1
1
1
1
1
1
1
1
1
1
1
1
1
1
1
1
1
1
1
1
1
1
1
1
1
1
1
1
1
1
1
1
1
1
1
1
1
1
1
1
1
1
1
1
1
1
1
1
1
1
1
1
1
1
1
1
1
1
1
1
1
1
1
1
1
1
1
1
1
1
1
1
1
1
1
1
1
1
1
1
1
1
1
1
1
1
1
1
1
1
1
1
1
1
1
1
1
1
1
1
1
1
1
1
1
1
1
1
1
1
1
1
1
1
1
1
1
1
1
1
1
1
1
1
1
1
1
1
1
1
1
1
1
1
1
1
1
1
1
1
1
1
1
1
1
1
1
1
1
1
1
1
1
1
1
1
1
1
1
1
1
1
1
1
1
1
1
1
1
1
1
1
1
1
1
1
1
1
1
1
1
1
1
1
1
1
1
1
1
1
1
1
1
1
1
1
1
1
1
1
1
1
1
1
1
1
1
1
1
1
1
1
1
1
1
1
1
1
1
1
1
1
1
1
1
1
1
1
1
1
1
1
1
1
1
1
1
1
1
1
1
1
1
1
1
1
1
1
1
1
1
1
1
1
1
1
1
1
1
1
1
1
1
1
1
1
1
1
1
1
1
1
1
1
1
1
1
1
1
1
1
1
1
1
1
1
1
1
1
1
1
1
1
1
1
1
1
1
1
1
1
1
1
1
1
1
1
1
1
1
1
1
1
1
1
1
1
1
1
1
1
1
1
1
1
1
1
1
1
1
1
1
1
1
1
1
1
1
1
1
0.999999
0.999999
0.999999
0.999999
0.999999
0.999999
0.999999
0.999999
0.999999
0.999999
0.999998
0.999998
0.999998
0.999998
0.999998
0.999997
0.999997
0.999997
0.999997
0.999996
0.999996
0.999995
0.999995
0.999994
0.999994
0.999993
0.999993
0.999992
0.999991
0.99999
0.999989
0.999988
0.999987
0.999986
0.999985
0.999983
0.999982
0.99998
0.999978
0.999976
0.999974
0.999971
0.999969
0.999966
0.999963
0.99996
0.999957
0.999953
0.999949
0.999944
0.99994
0.999935
0.999929
0.999923
0.999917
0.999911
0.999903
0.999896
0.999887
0.999878
0.999869
0.999859
0.999848
0.999836
0.999824
0.999811
0.999797
0.999782
0.999766
0.999749
0.999731
0.999712
0.999691
0.99967
0.999647
0.999622
0.999597
0.999569
0.99954
0.99951
0.999477
0.999443
0.999407
0.999369
0.999329
0.999286
0.999242
0.999195
0.999145
0.999093
0.999039
0.998981
0.998921
0.998858
0.998792
0.998722
0.99865
0.998573
0.998494
0.998411
0.998324
0.998233
0.998138
0.998039
0.997936
0.997829
0.997717
0.997601
0.99748
0.997354
0.997223
0.997087
0.996946
0.9968
0.996648
0.996491
0.996328
0.99616
0.995985
0.995805
0.995619
0.995426
0.995227
0.995022
0.99481
0.994591
0.994366
0.994134
0.993895
0.993649
0.993396
0.993136
0.992869
0.992594
0.992312
0.992022
0.991725
0.99142
0.991107
0.990787
0.990459
0.990123
0.989779
0.989428
0.989068
0.9887
0.988324
0.98794
0.987548
0.987147
0.986739
0.986322
0.985897
0.985464
0.985022
0.984573
0.984115
0.983648
0.983174
0.982691
0.9822
0.981701
0.981193
0.980678
0.980154
0.979622
0.979082
0.978534
0.977978
0.977414
0.976841
0.976261
0.975673
0.975077
0.974474
0.973862
0.973243
0.972616
0.971982
0.97134
0.97069
0.970033
0.969369
0.968697
0.968018
0.967332
0.966639
0.965938
0.965231
0.964516
0.963795
0.963067
0.962333
0.961591
0.960843
0.960089
0.959328
0.95856
0.957787
0.957007
0.956221
0.955429
0.95463
0.953826
0.953016
0.952201
0.951379
0.950552
0.949719
0.948881
0.948037
0.947188
0.946334
0.945475
0.94461
0.94374
0.942866
0.941986
0.941101
0.940212
0.939318
0.93842
0.937516
0.936609
0.935696
0.93478
0.933859
0.932934
0.932005
0.931071
0.930134
0.929193
0.928247
0.927298
0.926345
0.925389
0.924428
0.923464
0.922497
0.921526
0.920551
0.919573
0.918592
0.917608
0.91662
0.91563
0.914636
0.913639
0.912639
0.911636
0.91063
0.909622
0.908611
0.907597
0.90658
0.90556
0.904539
0.903514
0.902487
0.901458
0.900426
0.899392
0.898355
0.897316
0.896275
0.895232
0.894187
0.89314
0.89209
0.891039
0.889985
0.88893
0.887873
0.886814
0.885753
0.88469
0.883625
0.882559
0.881491
0.880422
0.879351
0.878278
0.877204
0.876128
0.875051
0.873972
0.872892
0.871811
0.870728
0.869644
0.868559
0.867472
0.866384
0.865295
0.864205
0.863114
0.862021
0.860928
0.859833
0.858738
0.857641
0.856543
0.855445
0.854345
0.853245
0.852143
0.851041
0.849938
0.848834
0.84773
0.846624
0.845518
0.844411
0.843304
0.842196
0.841087
0.839977
0.838867
0.837756
0.836645
0.835533
0.834421
0.833308
0.832194
0.83108
0.829966
0.828851
0.827736
0.82662
0.825504
0.824387
0.823271
0.822153
0.821036
0.819918
0.8188
0.817682
0.816563
0.815444
0.814325
0.813205
0.812086
0.810966
0.809846
0.808726
0.807606
0.806485
0.805365
0.804244
0.803123
0.802002
0.800881
0.799761
0.798639
0.797518
0.796397
0.795276
0.794155
0.793034
0.791913
0.790792
0.789671
0.78855
0.787429
0.786309
0.785188
0.784067
0.782947
0.781827
0.780706
0.779586
0.778466
0.777347
0.776227
0.775108
0.773989
0.77287
0.771751
0.770632
0.769514
0.768396
0.767278
0.76616
0.765043
0.763926
0.762809
0.761693
0.760576
0.759461
0.758345
0.75723
0.756115
0.755
0.753886
0.752772
0.751659
0.750545
0.749433
0.74832
0.747208
0.746097
0.744985
0.743875
0.742764
0.741654
0.740545
0.739436
0.738327
0.737219
0.736111
0.735004
0.733897
0.732791
0.731685
0.73058
0.729475
0.728371
0.727267
0.726164
0.725061
0.723959
0.722857
0.721756
0.720655
0.719555
0.718456
0.717357
0.716259
0.715161
0.714064
0.712967
0.711871
0.710776
0.709681
0.708587
0.707493
0.7064
0.705308
0.704216
0.703125
0.702035
0.700945
0.699856
0.698767
0.697679
0.696592
0.695506
0.69442
0.693335
0.692251
0.691167
0.690084
0.689002
0.68792
0.686839
0.685759
0.68468
0.683601
0.682523
0.681446
0.680369
0.679293
0.678218
0.677144
0.676071
0.674998
0.673926
0.672855
0.671784
0.670715
0.669646
0.668578
0.667511
0.666444
0.665378
0.664314
0.66325
0.662186
0.661124
0.660063
0.659002
0.657942
0.656883
0.655825
0.654767
0.653711
0.652655
0.651601
0.650547
0.649494
0.648441
0.64739
0.64634
0.64529
0.644242
0.643194
0.642147
0.641101
0.640056
0.639012
0.637969
0.636927
0.635886
0.634845
0.633806
0.632767
0.63173
0.630693
0.629658
0.628623
0.627589
0.626557
0.625525
0.624494
0.623464
0.622435
0.621408
0.620381
0.619355
0.61833
0.617306
0.616283
0.615262
0.614241
0.613221
0.612202
0.611185
0.610168
0.609152
0.608138
0.607124
0.606112
0.6051
0.60409
0.603081
0.602073
0.601066
0.60006
0.599055
0.598051
0.597048
0.596046
0.595046
0.594046
0.593048
0.592051
0.591055
0.59006
0.589066
0.588073
0.587082
0.586091
0.585102
0.584114
0.583127
0.582141
0.581157
0.580174
0.579191
0.57821
0.57723
0.576252
0.575274
0.574298
0.573323
0.572349
0.571377
0.570405
0.569435
0.568466
0.567499
0.566532
0.565567
0.564603
0.563641
0.562679
0.561719
0.56076
0.559803
0.558846
0.557891
0.556938
0.555985
0.555034
0.554084
0.553136
0.552189
0.551243
0.550299
0.549355
0.548414
0.547473
0.546534
0.545596
0.54466
0.543725
0.542791
0.541859
0.540928
0.539999
0.539071
0.538144
0.537219
0.536295
0.535372
0.534451
0.533532
0.532613
0.531697
0.530781
0.529867
0.528955
0.528044
0.527135
0.526227
0.52532
0.524415
0.523511
0.522609
0.521709
0.52081
0.519912
0.519016
0.518122
0.517229
0.516337
0.515447
0.514559
0.513672
0.512786
0.511903
0.51102
0.51014
0.509261
0.508383
0.507507
0.506633
0.50576
0.504889
0.50402
0.503152
0.502285
0.501421
0.500558
0.499696
0.498837
0.497978
0.497122
0.496267
0.495414
0.494562
0.493713
0.492864
0.492018
0.491173
0.49033
0.489489
0.488649
0.487811
0.486975
0.48614
0.485307
0.484476
0.483647
0.482819
0.481993
0.481169
0.480346
0.479526
0.478707
0.47789
0.477074
0.476261
0.475449
0.474639
0.473831
0.473024
0.47222
0.471417
0.470616
0.469816
0.469019
0.468224
0.46743
0.466638
0.465848
0.46506
0.464273
0.463489
0.462706
0.461925
0.461147
0.46037
0.459594
0.458821
0.45805
0.45728
0.456513
0.455747
0.454983
0.454221
0.453461
0.452703
0.451947
0.451193
0.450441
0.44969
0.448942
0.448195
0.447451
0.446708
0.445968
0.445229
0.444492
0.443758
0.443025
0.442294
0.441565
0.440839
0.440114
0.439391
0.43867
0.437951
0.437235
0.43652
0.435807
0.435096
0.434387
0.433681
0.432976
0.432273
0.431572
0.430874
0.430177
0.429483
0.42879
0.4281
0.427411
0.426725
0.426041
0.425358
0.424678
0.424
0.423324
0.42265
0.421978
0.421309
0.420641
0.419975
0.419312
0.41865
0.417991
0.417334
0.416679
0.416026
0.415375
0.414726
0.41408
0.413435
0.412793
0.412153
0.411515
0.410879
0.410245
0.409613
0.408984
0.408356
0.407731
0.407108
0.406487
0.405869
0.405252
0.404638
0.404026
0.403416
0.402808
0.402202
0.401599
0.400998
0.400399
0.399802
0.399207
0.398615
0.398025
0.397437
0.396851
0.396268
0.395686
0.395107
0.394531
0.393956
0.393384
0.392814
0.392246
0.391681
0.391118
0.390557
0.389998
0.389442
0.388888
0.388337
0.387787
0.38724
0.386696
0.386153
0.385613
0.385076
0.38454
0.384008
0.383477
0.382949
0.382423
0.3819
0.381379
0.38086
0.380344
0.379831
0.37932
0.378811
0.378305
0.377801
0.3773
0.376801
0.376305
0.375812
0.375321
0.374832
0.374347
0.373864
0.373383
0.372905
0.37243
0.371957
0.371488
0.371021
0.370556
0.370095
0.369636
0.36918
0.368727
0.368277
0.36783
0.367386
0.366944
0.366506
0.366071
0.365639
0.36521
0.364784
0.364361
0.363942
0.363526
0.363113
0.362704
0.362298
0.361896
0.361497
0.361102
0.360711
0.360323
0.35994
0.35956
0.359184
0.358812
0.358445
0.358082
0.357723
0.357369
0.357019
0.356674
0.356334
0.355998
0.355668
0.355343
0.355024
0.35471
0.354402
0.3541
0.353804
0.353514
0.353231
0.352955
0.352685
0.352423
0.352169
0.351922
0.351683
0.351453
0.351231
0.351019
0.350816
0.350623
0.35044
0.350268
0.350107
0.349957
0.349819
0.349694
0.349582
0.349483
0.349398
0.349328
0.349273
0.349233
0.349209
0.349202
0.349212
0.349239
0.349284
0.349348
0.34943
0.349532
0.349653
0.349794
0.349954
0.350134
0.350335
0.350555
0.350794
0.351054
0.351332
0.351629
0.351945
0.352278
0.352629
0.352996
0.35338
0.353779
0.354192
0.35462
0.355061
0.355515
0.355981
0.356458
0.356947
0.357446
0.357955
0.358473
0.359002
0.359539
0.360085
0.36064
0.361204
0.361776
0.362357
0.362947
0.363545
0.364152
0.364768
0.365392
0.366026
0.36667
0.367323
0.367985
0.368658
0.36934
0.370033
0.370737
0.371452
0.372177
0.372914
0.373662
0.374423
0.375195
0.37598
0.376777
0.377587
0.37841
0.379247
0.380097
0.380961
0.38184
0.382732
0.38364
0.384562
0.385499
0.386452
0.387421
0.388406
0.389407
0.390425
0.391459
0.392511
0.39358
0.394667
0.395772
0.396895
0.398036
0.399196
0.400375
0.401574
0.402792
0.404029
0.405287
0.406564
0.407862
0.40918
0.410519
0.411878
0.413258
0.414659
0.416081
0.417524
0.418988
0.420472
0.421977
0.423502
0.425047
0.426612
0.428197
0.4298
0.431421
0.43306
0.434715
0.436387
0.438073
0.439772
0.441484
0.443206
0.444937
0.446676
0.448419
0.450165
0.451912
0.453656
0.455395
0.457126
0.458845
0.460548
0.462233
0.463894
0.465528
0.46713
0.468695
0.470219
0.471697
0.473123
0.474493
0.475801
0.477043
0.478213
0.479307
0.48032
0.481249
0.482091
0.482843
0.483503
0.484071
0.484548
0.484935
0.485237
0.485458
0.485604
0.485683
0.485705
0.48568
0.485617
0.48553
0.485429
0.485326
0.485229
0.485149
0.485091
0.485061
0.485061
0.485091
0.485149
0.485229
0.485326
0.485429
0.48553
0.485617
0.48568
0.485705
0.485683
0.485604
0.485458
0.485237
0.484935
0.484548
0.484071
0.483503
0.482843
0.482091
0.481249
0.48032
0.479307
0.478213
0.477043
0.475801
0.474493
0.473123
0.471697
0.470219
0.468695
0.46713
0.465528
0.463894
0.462233
0.460548
0.458845
0.457126
0.455395
0.453656
0.451912
0.450165
0.448419
0.446676
0.444937
0.443206
0.441484
0.439772
0.438073
0.436387
0.434715
0.43306
0.431421
0.4298
0.428197
0.426612
0.425047
0.423502
0.421977
0.420472
0.418988
0.417524
0.416081
0.414659
0.413258
0.411878
0.410519
0.40918
0.407862
0.406564
0.405287
0.404029
0.402792
0.401574
0.400375
0.399196
0.398036
0.396895
0.395772
0.394667
0.39358
0.392511
0.391459
0.390425
0.389407
0.388406
0.387421
0.386452
0.385499
0.384562
0.38364
0.382732
0.38184
0.380961
0.380097
0.379247
0.37841
0.377587
0.376777
0.37598
0.375195
0.374423
0.373662
0.372914
0.372177
0.371452
0.370737
0.370033
0.36934
0.368658
0.367985
0.367323
0.36667
0.366026
0.365392
0.364768
0.364152
0.363545
0.362947
0.362357
0.361776
0.361204
0.36064
0.360085
0.359539
0.359002
0.358473
0.357955
0.357446
0.356947
0.356458
0.355981
0.355515
0.355061
0.35462
0.354192
0.353779
0.35338
0.352996
0.352629
0.352278
0.351945
0.351629
0.351332
0.351054
0.350794
0.350555
0.350335
0.350134
0.349954
0.349794
0.349653
0.349532
0.34943
0.349348
0.349284
0.349239
0.349212
0.349202
0.349209
0.349233
0.349273
0.349328
0.349398
0.349483
0.349582
0.349694
0.349819
0.349957
0.350107
0.350268
0.35044
0.350623
0.350816
0.351019
0.351231
0.351453
0.351683
0.351922
0.352169
0.352423
0.352685
0.352955
0.353231
0.353514
0.353804
0.3541
0.354402
0.35471
0.355024
0.355343
0.355668
0.355998
0.356334
0.356674
0.357019
0.357369
0.357723
0.358082
0.358445
0.358812
0.359184
0.35956
0.35994
0.360323
0.360711
0.361102
0.361497
0.361896
0.362298
0.362704
0.363113
0.363526
0.363942
0.364361
0.364784
0.36521
0.365639
0.366071
0.366506
0.366944
0.367386
0.36783
0.368277
0.368727
0.36918
0.369636
0.370095
0.370556
0.371021
0.371488
0.371957
0.37243
0.372905
0.373383
0.373864
0.374347
0.374832
0.375321
0.375812
0.376305
0.376801
0.3773
0.377801
0.378305
0.378811
0.37932
0.379831
0.380344
0.38086
0.381379
0.3819
0.382423
0.382949
0.383477
0.384008
0.38454
0.385076
0.385613
0.386153
0.386696
0.38724
0.387787
0.388337
0.388888
0.389442
0.389998
0.390557
0.391118
0.391681
0.392246
0.392814
0.393384
0.393956
0.394531
0.395107
0.395686
0.396268
0.396851
0.397437
0.398025
0.398615
0.399207
0.399802
0.400399
0.400998
0.401599
0.402202
0.402808
0.403416
0.404026
0.404638
0.405252
0.405869
0.406487
0.407108
0.407731
0.408356
0.408984
0.409613
0.410245
0.410879
0.411515
0.412153
0.412793
0.413435
0.41408
0.414726
0.415375
0.416026
0.416679
0.417334
0.417991
0.41865
0.419312
0.419975
0.420641
0.421309
0.421978
0.42265
0.423324
0.424
0.424678
0.425358
0.426041
0.426725
0.427411
0.4281
0.42879
0.429483
0.430177
0.430874
0.431572
0.432273
0.432976
0.433681
0.434387
0.435096
0.435807
0.43652
0.437235
0.437951
0.43867
0.439391
0.440114
0.440839
0.441565
0.442294
0.443025
0.443758
0.444492
0.445229
0.445968
0.446708
0.447451
0.448195
0.448942
0.44969
0.450441
0.451193
0.451947
0.452703
0.453461
0.454221
0.454983
0.455747
0.456513
0.45728
0.45805
0.458821
0.459594
0.46037
0.461147
0.461925
0.462706
0.463489
0.464273
0.46506
0.465848
0.466638
0.46743
0.468224
0.469019
0.469816
0.470616
0.471417
0.47222
0.473024
0.473831
0.474639
0.475449
0.476261
0.477074
0.47789
0.478707
0.479526
0.480346
0.481169
0.481993
0.482819
0.483647
0.484476
0.485307
0.48614
0.486975
0.487811
0.488649
0.489489
0.49033
0.491173
0.492018
0.492864
0.493713
0.494562
0.495414
0.496267
0.497122
0.497978
0.498837
0.499696
0.500558
0.501421
0.502285
0.503152
0.50402
0.504889
0.50576
0.506633
0.507507
0.508383
0.509261
0.51014
0.51102
0.511903
0.512786
0.513672
0.514559
0.515447
0.516337
0.517229
0.518122
0.519016
0.519912
0.52081
0.521709
0.522609
0.523511
0.524415
0.52532
0.526227
0.527135
0.528044
0.528955
0.529867
0.530781
0.531697
0.532613
0.533532
0.534451
0.535372
0.536295
0.537219
0.538144
0.539071
0.539999
0.540928
0.541859
0.542791
0.543725
0.54466
0.545596
0.546534
0.547473
0.548414
0.549355
0.550299
0.551243
0.552189
0.553136
0.554084
0.555034
0.555985
0.556938
0.557891
0.558846
0.559803
0.56076
0.561719
0.562679
0.563641
0.564603
0.565567
0.566532
0.567499
0.568466
0.569435
0.570405
0.571377
0.572349
0.573323
0.574298
0.575274
0.576252
0.57723
0.57821
0.579191
0.580174
0.581157
0.582141
0.583127
0.584114
0.585102
0.586091
0.587082
0.588073
0.589066
0.59006
0.591055
0.592051
0.593048
0.594046
0.595046
0.596046
0.597048
0.598051
0.599055
0.60006
0.601066
0.602073
0.603081
0.60409
0.6051
0.606112
0.607124
0.608138
0.609152
0.610168
0.611185
0.612202
0.613221
0.614241
0.615262
0.616283
0.617306
0.61833
0.619355
0.620381
0.621408
0.622435
0.623464
0.624494
0.625525
0.626557
0.627589
0.628623
0.629658
0.630693
0.63173
0.632767
0.633806
0.634845
0.635886
0.636927
0.637969
0.639012
0.640056
0.641101
0.642147
0.643194
0.644242
0.64529
0.64634
0.64739
0.648441
0.649494
0.650547
0.651601
0.652655
0.653711
0.654767
0.655825
0.656883
0.657942
0.659002
0.660063
0.661124
0.662186
0.66325
0.664314
0.665378
0.666444
0.667511
0.668578
0.669646
0.670715
0.671784
0.672855
0.673926
0.674998
0.676071
0.677144
0.678218
0.679293
0.680369
0.681446
0.682523
0.683601
0.68468
0.685759
0.686839
0.68792
0.689002
0.690084
0.691167
0.692251
0.693335
0.69442
0.695506
0.696592
0.697679
0.698767
0.699856
0.700945
0.702035
0.703125
0.704216
0.705308
0.7064
0.707493
0.708587
0.709681
0.710776
0.711871
0.712967
0.714064
0.715161
0.716259
0.717357
0.718456
0.719555
0.720655
0.721756
0.722857
0.723959
0.725061
0.726164
0.727267
0.728371
0.729475
0.73058
0.731685
0.732791
0.733897
0.735004
0.736111
0.737219
0.738327
0.739436
0.740545
0.741654
0.742764
0.743875
0.744985
0.746097
0.747208
0.74832
0.749433
0.750545
0.751659
0.752772
0.753886
0.755
0.756115
0.75723
0.758345
0.759461
0.760576
0.761693
0.762809
0.763926
0.765043
0.76616
0.767278
0.768396
0.769514
0.770632
0.771751
0.77287
0.773989
0.775108
0.776227
0.777347
0.778466
0.779586
0.780706
0.781827
0.782947
0.784067
0.785188
0.786309
0.787429
0.78855
0.789671
0.790792
0.791913
0.793034
0.794155
0.795276
0.796397
0.797518
0.798639
0.799761
0.800881
0.802002
0.803123
0.804244
0.805365
0.806485
0.807606
0.808726
0.809846
0.810966
0.812086
0.813205
0.814325
0.815444
0.816563
0.817682
0.8188
0.819918
0.821036
0.822153
0.823271
0.824387
0.825504
0.82662
0.827736
0.828851
0.829966
0.83108
0.832194
0.833308
0.834421
0.835533
0.836645
0.837756
0.838867
0.839977
0.841087
0.842196
0.843304
0.844411
0.845518
0.846624
0.84773
0.848834
0.849938
0.851041
0.852143
0.853245
0.854345
0.855445
0.856543
0.857641
0.858738
0.859833
0.860928
0.862021
0.863114
0.864205
0.865295
0.866384
0.867472
0.868559
0.869644
0.870728
0.871811
0.872892
0.873972
0.875051
0.876128
0.877204
0.878278
0.879351
0.880422
0.881491
0.882559
0.883625
0.88469
0.885753
0.886814
0.887873
0.88893
0.889985
0.891039
0.89209
0.89314
0.894187
0.895232
0.896275
0.897316
0.898355
0.899392
0.900426
0.901458
0.902487
0.903514
0.904539
0.90556
0.90658
0.907597
0.908611
0.909622
0.91063
0.911636
0.912639
0.913639
0.914636
0.91563
0.91662
0.917608
0.918592
0.919573
0.920551
0.921526
0.922497
0.923464
0.924428
0.925389
0.926345
0.927298
0.928247
0.929193
0.930134
0.931071
0.932005
0.932934
0.933859
0.93478
0.935696
0.936609
0.937516
0.93842
0.939318
0.940212
0.941101
0.941986
0.942866
0.94374
0.94461
0.945475
0.946334
0.947188
0.948037
0.948881
0.949719
0.950552
0.951379
0.952201
0.953016
0.953826
0.95463
0.955429
0.956221
0.957007
0.957787
0.95856
0.959328
0.960089
0.960843
0.961591
0.962333
0.963067
0.963795
0.964516
0.965231
0.965938
0.966639
0.967332
0.968018
0.968697
0.969369
0.970033
0.97069
0.97134
0.971982
0.972616
0.973243
0.973862
0.974474
0.975077
0.975673
0.976261
0.976841
0.977414
0.977978
0.978534
0.979082
0.979622
0.980154
0.980678
0.981193
0.981701
0.9822
0.982691
0.983174
0.983648
0.984115
0.984573
0.985022
0.985464
0.985897
0.986322
0.986739
0.987147
0.987548
0.98794
0.988324
0.9887
0.989068
0.989428
0.989779
0.990123
0.990459
0.990787
0.991107
0.99142
0.991725
0.992022
0.992312
0.992594
0.992869
0.993136
0.993396
0.993649
0.993895
0.994134
0.994366
0.994591
0.99481
0.995022
0.995227
0.995426
0.995619
0.995805
0.995985
0.99616
0.996328
0.996491
0.996648
0.9968
0.996946
0.997087
0.997223
0.997354
0.99748
0.997601
0.997717
0.997829
0.997936
0.998039
0.998138
0.998233
0.998324
0.998411
0.998494
0.998573
0.99865
0.998722
0.998792
0.998858
0.998921
0.998981
0.999039
0.999093
0.999145
0.999195
0.999242
0.999286
0.999329
0.999369
0.999407
0.999443
0.999477
0.99951
0.99954
0.999569
0.999597
0.999622
0.999647
0.99967
0.999691
0.999712
0.999731
0.999749
0.999766
0.999782
0.999797
0.999811
0.999824
0.999836
0.999848
0.999859
0.999869
0.999878
0.999887
0.999896
0.999903
0.999911
0.999917
0.999923
0.999929
0.999935
0.99994
0.999944
0.999949
0.999953
0.999957
0.99996
0.999963
0.999966
0.999969
0.999971
0.999974
0.999976
0.999978
0.99998
0.999982
0.999983
0.999985
0.999986
0.999987
0.999988
0.999989
0.99999
0.999991
0.999992
0.999993
0.999993
0.999994
0.999994
0.999995
0.999995
0.999996
0.999996
0.999997
0.999997
0.999997
0.999997
0.999998
0.999998
0.999998
0.999998
0.999998
0.999999
0.999999
0.999999
0.999999
0.999999
0.999999
0.999999
0.999999
0.999999
0.999999
1
1
1
1
1
1
1
1
1
1
1
1
1
1
1
1
1
1
1
1
1
1
1
1
1
1
1
1
1
1
1
1
1
1
1
1
1
1
1
1
1
1
1
1
1
1
1
1
1
1
1
1
1
1
1
1
1
1
1
1
1
1
1
1
1
1
1
1
1
1
1
1
1
1
1
1
1
1
1
1
1
1
1
1
1
1
1
1
1
1
1
1
1
1
1
1
1
1
1
1
1
1
1
1
1
1
1
1
1
1
1
1
1
1
1
1
1
1
1
1
1
1
1
1
1
1
1
1
1
1
1
1
1
1
1
1
1
1
1
1
1
1
1
1
1
1
1
1
1
1
1
1
1
1
1
1
1
1
1
1
1
1
1
1
1
1
1
1
1
1
1
1
1
1
1
1
1
1
1
1
1
1
1
1
1
1
1
1
1
1
1
1
1
1
1
1
1
1
1
1
1
1
1
1
1
1
1
1
1
1
1
1
1
1
1
1
1
1
1
1
1
1
1
1
1
1
1
1
1
1
1
1
1
1
1
1
1
1
1
1
1
1
1
1
1
1
1
1
1
1
1
1
1
1
1
1
1
1
1
1
1
1
1
1
1
1
1
1
1
1
1
1
1
1
1
1
1
1
1
1
1
1
1
1
1
1
1
1
1
1
1
1
1
1
1
1
1
1
1
1
1
1
1
1
1
1
1
1
1
1
1
1
1
1
1
1
1
1
1
1
1
1
1
1
1
1
1
1
1
1
1
1
1
1
1
1
1
1
1
1
1
1
1
1
1
1
1
1
1
1
1
1
1
1
1
1
1
1
1
1
1
1
1
1
1
1
1
1
1
1
1
1
1
1
1
1
1
1
1
1
1
1
1
1
1
1
1
1
1
1
1
1
1
1
1
1
1
1
1
1
1
1
1
1
1
1
1
1
1
1
1
1
1
1
1
1
1
1
1
1
1
1
1
1
1
1
1
1
1
1
1
1
1
1
1
1
1
1
1
1
1
1
1
1
1
1
1
1
1
1
1
1
1
1
1
1
1
1
1
1
1
1
1
1
1
1
1
1
1
1
1
1
1
1
1
1
1
1
1
1
1
1
1
1
1
1
1
1
1
1
1
1
1
1
1
1
1
1
1
1
1
1
1
1
1
1
1
1
1
1
1
1
1
1
1
1
1
1
1
1
1
1
1
1
1
1
1
1
1
1
1
1
1
1
1
1
)
;

boundaryField
{
    sides
    {
        type            zeroGradient;
    }
    empty1
    {
        type            empty;
    }
    empty2
    {
        type            empty;
    }
}


// ************************************************************************* //
