/*--------------------------------*- C++ -*----------------------------------*\
| =========                 |                                                 |
| \\      /  F ield         | OpenFOAM: The Open Source CFD Toolbox           |
|  \\    /   O peration     | Version:  4.1                                   |
|   \\  /    A nd           | Web:      www.OpenFOAM.org                      |
|    \\/     M anipulation  |                                                 |
\*---------------------------------------------------------------------------*/
FoamFile
{
    version     2.0;
    format      ascii;
    class       volScalarField;
    location    "0.1";
    object      tauQGD;
}
// * * * * * * * * * * * * * * * * * * * * * * * * * * * * * * * * * * * * * //

dimensions      [0 0 1 0 0 0 0];

internalField   nonuniform List<scalar> 
3200
(
0.000125274
0.000125274
0.000125274
0.000125274
0.000125274
0.000125274
0.000125274
0.000125274
0.000125274
0.000125274
0.000125274
0.000125274
0.000125274
0.000125274
0.000125274
0.000125274
0.000125274
0.000125274
0.000125274
0.000125274
0.000125274
0.000125274
0.000125274
0.000125274
0.000125274
0.000125274
0.000125274
0.000125274
0.000125274
0.000125274
0.000125274
0.000125274
0.000125274
0.000125274
0.000125274
0.000125274
0.000125274
0.000125274
0.000125274
0.000125274
0.000125274
0.000125274
0.000125274
0.000125274
0.000125274
0.000125274
0.000125274
0.000125274
0.000125274
0.000125274
0.000125274
0.000125274
0.000125274
0.000125274
0.000125274
0.000125274
0.000125274
0.000125274
0.000125274
0.000125274
0.000125274
0.000125274
0.000125274
0.000125274
0.000125274
0.000125274
0.000125274
0.000125274
0.000125274
0.000125274
0.000125274
0.000125274
0.000125274
0.000125274
0.000125274
0.000125274
0.000125274
0.000125274
0.000125274
0.000125274
0.000125274
0.000125274
0.000125274
0.000125274
0.000125274
0.000125274
0.000125274
0.000125274
0.000125274
0.000125274
0.000125274
0.000125274
0.000125274
0.000125274
0.000125274
0.000125274
0.000125274
0.000125274
0.000125274
0.000125274
0.000125274
0.000125274
0.000125274
0.000125274
0.000125274
0.000125274
0.000125274
0.000125274
0.000125274
0.000125274
0.000125274
0.000125274
0.000125274
0.000125274
0.000125274
0.000125274
0.000125274
0.000125274
0.000125274
0.000125274
0.000125274
0.000125274
0.000125274
0.000125274
0.000125274
0.000125274
0.000125274
0.000125274
0.000125274
0.000125274
0.000125274
0.000125274
0.000125274
0.000125274
0.000125274
0.000125274
0.000125274
0.000125274
0.000125274
0.000125274
0.000125274
0.000125274
0.000125274
0.000125274
0.000125274
0.000125274
0.000125274
0.000125274
0.000125274
0.000125274
0.000125274
0.000125274
0.000125274
0.000125274
0.000125274
0.000125274
0.000125274
0.000125274
0.000125274
0.000125274
0.000125274
0.000125274
0.000125274
0.000125274
0.000125274
0.000125274
0.000125274
0.000125274
0.000125274
0.000125274
0.000125274
0.000125274
0.000125274
0.000125274
0.000125274
0.000125274
0.000125274
0.000125274
0.000125274
0.000125274
0.000125274
0.000125274
0.000125274
0.000125274
0.000125274
0.000125274
0.000125274
0.000125274
0.000125274
0.000125274
0.000125274
0.000125274
0.000125274
0.000125274
0.000125274
0.000125274
0.000125274
0.000125274
0.000125274
0.000125274
0.000125274
0.000125274
0.000125274
0.000125274
0.000125274
0.000125274
0.000125274
0.000125274
0.000125274
0.000125274
0.000125274
0.000125274
0.000125274
0.000125274
0.000125274
0.000125274
0.000125274
0.000125274
0.000125274
0.000125274
0.000125274
0.000125274
0.000125274
0.000125274
0.000125274
0.000125274
0.000125274
0.000125274
0.000125274
0.000125274
0.000125274
0.000125274
0.000125274
0.000125274
0.000125274
0.000125274
0.000125274
0.000125274
0.000125274
0.000125274
0.000125274
0.000125274
0.000125274
0.000125274
0.000125274
0.000125274
0.000125274
0.000125274
0.000125274
0.000125274
0.000125274
0.000125274
0.000125274
0.000125274
0.000125274
0.000125274
0.000125274
0.000125274
0.000125274
0.000125274
0.000125274
0.000125274
0.000125274
0.000125274
0.000125274
0.000125274
0.000125274
0.000125274
0.000125274
0.000125274
0.000125274
0.000125274
0.000125274
0.000125274
0.000125274
0.000125274
0.000125274
0.000125274
0.000125274
0.000125274
0.000125274
0.000125274
0.000125274
0.000125274
0.000125274
0.000125274
0.000125274
0.000125274
0.000125274
0.000125274
0.000125274
0.000125274
0.000125274
0.000125274
0.000125274
0.000125274
0.000125274
0.000125274
0.000125274
0.000125274
0.000125274
0.000125274
0.000125274
0.000125274
0.000125274
0.000125274
0.000125274
0.000125274
0.000125274
0.000125274
0.000125274
0.000125274
0.000125274
0.000125274
0.000125274
0.000125274
0.000125274
0.000125274
0.000125274
0.000125274
0.000125274
0.000125274
0.000125274
0.000125274
0.000125274
0.000125274
0.000125274
0.000125274
0.000125274
0.000125274
0.000125274
0.000125274
0.000125274
0.000125274
0.000125274
0.000125274
0.000125274
0.000125274
0.000125274
0.000125274
0.000125274
0.000125274
0.000125274
0.000125274
0.000125274
0.000125274
0.000125274
0.000125274
0.000125274
0.000125274
0.000125274
0.000125274
0.000125274
0.000125274
0.000125274
0.000125274
0.000125274
0.000125274
0.000125274
0.000125274
0.000125274
0.000125274
0.000125274
0.000125274
0.000125274
0.000125274
0.000125274
0.000125274
0.000125274
0.000125274
0.000125274
0.000125274
0.000125274
0.000125274
0.000125274
0.000125274
0.000125274
0.000125274
0.000125274
0.000125274
0.000125274
0.000125274
0.000125274
0.000125274
0.000125274
0.000125274
0.000125274
0.000125274
0.000125274
0.000125274
0.000125274
0.000125274
0.000125274
0.000125274
0.000125274
0.000125274
0.000125274
0.000125274
0.000125274
0.000125274
0.000125274
0.000125274
0.000125274
0.000125274
0.000125274
0.000125274
0.000125274
0.000125274
0.000125274
0.000125274
0.000125274
0.000125274
0.000125274
0.000125274
0.000125274
0.000125274
0.000125274
0.000125274
0.000125274
0.000125274
0.000125274
0.000125274
0.000125274
0.000125274
0.000125274
0.000125274
0.000125274
0.000125274
0.000125274
0.000125274
0.000125274
0.000125274
0.000125274
0.000125274
0.000125274
0.000125274
0.000125274
0.000125274
0.000125274
0.000125274
0.000125274
0.000125274
0.000125274
0.000125274
0.000125274
0.000125274
0.000125274
0.000125274
0.000125274
0.000125274
0.000125274
0.000125274
0.000125274
0.000125274
0.000125274
0.000125274
0.000125274
0.000125274
0.000125274
0.000125274
0.000125274
0.000125274
0.000125274
0.000125274
0.000125274
0.000125274
0.000125274
0.000125274
0.000125274
0.000125274
0.000125274
0.000125274
0.000125274
0.000125274
0.000125274
0.000125274
0.000125274
0.000125274
0.000125274
0.000125274
0.000125274
0.000125274
0.000125274
0.000125274
0.000125274
0.000125274
0.000125274
0.000125274
0.000125274
0.000125274
0.000125274
0.000125274
0.000125274
0.000125274
0.000125274
0.000125274
0.000125274
0.000125274
0.000125274
0.000125274
0.000125274
0.000125274
0.000125274
0.000125274
0.000125274
0.000125274
0.000125274
0.000125274
0.000125274
0.000125274
0.000125274
0.000125274
0.000125274
0.000125274
0.000125274
0.000125274
0.000125274
0.000125274
0.000125274
0.000125274
0.000125274
0.000125274
0.000125274
0.000125274
0.000125274
0.000125274
0.000125274
0.000125274
0.000125274
0.000125274
0.000125274
0.000125274
0.000125274
0.000125274
0.000125274
0.000125274
0.000125274
0.000125274
0.000125274
0.000125274
0.000125274
0.000125274
0.000125274
0.000125274
0.000125274
0.000125274
0.000125274
0.000125274
0.000125274
0.000125274
0.000125274
0.000125274
0.000125274
0.000125274
0.000125274
0.000125274
0.000125274
0.000125274
0.000125274
0.000125274
0.000125274
0.000125274
0.000125274
0.000125274
0.000125274
0.000125274
0.000125274
0.000125274
0.000125275
0.000125275
0.000125275
0.000125275
0.000125275
0.000125275
0.000125275
0.000125275
0.000125275
0.000125276
0.000125276
0.000125276
0.000125276
0.000125276
0.000125276
0.000125277
0.000125277
0.000125277
0.000125278
0.000125278
0.000125278
0.000125279
0.000125279
0.000125279
0.00012528
0.00012528
0.000125281
0.000125281
0.000125282
0.000125283
0.000125283
0.000125284
0.000125285
0.000125286
0.000125286
0.000125287
0.000125288
0.000125289
0.000125291
0.000125292
0.000125293
0.000125294
0.000125296
0.000125297
0.000125299
0.000125301
0.000125303
0.000125304
0.000125307
0.000125309
0.000125311
0.000125313
0.000125316
0.000125318
0.000125321
0.000125324
0.000125327
0.000125331
0.000125334
0.000125338
0.000125341
0.000125345
0.00012535
0.000125354
0.000125358
0.000125363
0.000125368
0.000125373
0.000125379
0.000125385
0.000125391
0.000125397
0.000125403
0.00012541
0.000125417
0.000125424
0.000125432
0.00012544
0.000125448
0.000125457
0.000125465
0.000125475
0.000125484
0.000125494
0.000125504
0.000125515
0.000125526
0.000125537
0.000125549
0.000125561
0.000125574
0.000125587
0.0001256
0.000125614
0.000125628
0.000125643
0.000125658
0.000125673
0.000125689
0.000125706
0.000125723
0.00012574
0.000125758
0.000125776
0.000125795
0.000125815
0.000125834
0.000125855
0.000125876
0.000125897
0.000125919
0.000125941
0.000125964
0.000125988
0.000126012
0.000126036
0.000126061
0.000126087
0.000126113
0.000126139
0.000126167
0.000126194
0.000126223
0.000126251
0.000126281
0.000126311
0.000126341
0.000126372
0.000126404
0.000126436
0.000126469
0.000126502
0.000126536
0.00012657
0.000126605
0.00012664
0.000126676
0.000126713
0.00012675
0.000126788
0.000126826
0.000126865
0.000126904
0.000126944
0.000126984
0.000127025
0.000127066
0.000127108
0.000127151
0.000127194
0.000127238
0.000127282
0.000127326
0.000127372
0.000127417
0.000127463
0.00012751
0.000127557
0.000127605
0.000127653
0.000127702
0.000127751
0.000127801
0.000127851
0.000127902
0.000127953
0.000128005
0.000128057
0.000128109
0.000128162
0.000128216
0.00012827
0.000128325
0.00012838
0.000128435
0.000128491
0.000128547
0.000128604
0.000128661
0.000128719
0.000128777
0.000128835
0.000128894
0.000128954
0.000129014
0.000129074
0.000129134
0.000129195
0.000129257
0.000129319
0.000129381
0.000129444
0.000129507
0.00012957
0.000129634
0.000129698
0.000129763
0.000129828
0.000129893
0.000129959
0.000130025
0.000130092
0.000130159
0.000130226
0.000130294
0.000130362
0.00013043
0.000130499
0.000130568
0.000130637
0.000130707
0.000130777
0.000130847
0.000130918
0.000130989
0.000131061
0.000131133
0.000131205
0.000131277
0.00013135
0.000131423
0.000131496
0.00013157
0.000131644
0.000131718
0.000131793
0.000131868
0.000131943
0.000132019
0.000132095
0.000132171
0.000132247
0.000132324
0.000132401
0.000132479
0.000132556
0.000132634
0.000132712
0.000132791
0.00013287
0.000132949
0.000133028
0.000133108
0.000133188
0.000133268
0.000133348
0.000133429
0.00013351
0.000133592
0.000133673
0.000133755
0.000133837
0.000133919
0.000134002
0.000134085
0.000134168
0.000134251
0.000134335
0.000134419
0.000134503
0.000134588
0.000134672
0.000134757
0.000134842
0.000134928
0.000135013
0.000135099
0.000135185
0.000135272
0.000135358
0.000135445
0.000135532
0.00013562
0.000135707
0.000135795
0.000135883
0.000135972
0.00013606
0.000136149
0.000136238
0.000136327
0.000136417
0.000136507
0.000136597
0.000136687
0.000136777
0.000136868
0.000136959
0.00013705
0.000137141
0.000137233
0.000137324
0.000137416
0.000137509
0.000137601
0.000137694
0.000137787
0.00013788
0.000137973
0.000138067
0.00013816
0.000138254
0.000138349
0.000138443
0.000138538
0.000138633
0.000138728
0.000138823
0.000138918
0.000139014
0.00013911
0.000139206
0.000139303
0.000139399
0.000139496
0.000139593
0.00013969
0.000139788
0.000139885
0.000139983
0.000140081
0.00014018
0.000140278
0.000140377
0.000140476
0.000140575
0.000140674
0.000140774
0.000140873
0.000140973
0.000141073
0.000141174
0.000141274
0.000141375
0.000141476
0.000141577
0.000141679
0.00014178
0.000141882
0.000141984
0.000142086
0.000142189
0.000142292
0.000142394
0.000142497
0.000142601
0.000142704
0.000142808
0.000142912
0.000143016
0.00014312
0.000143224
0.000143329
0.000143434
0.000143539
0.000143644
0.00014375
0.000143856
0.000143961
0.000144068
0.000144174
0.00014428
0.000144387
0.000144494
0.000144601
0.000144708
0.000144816
0.000144924
0.000145032
0.00014514
0.000145248
0.000145357
0.000145465
0.000145574
0.000145683
0.000145793
0.000145902
0.000146012
0.000146122
0.000146232
0.000146342
0.000146453
0.000146564
0.000146675
0.000146786
0.000146897
0.000147009
0.00014712
0.000147232
0.000147344
0.000147457
0.000147569
0.000147682
0.000147795
0.000147908
0.000148022
0.000148135
0.000148249
0.000148363
0.000148477
0.000148591
0.000148706
0.000148821
0.000148936
0.000149051
0.000149166
0.000149282
0.000149398
0.000149514
0.00014963
0.000149746
0.000149863
0.00014998
0.000150097
0.000150214
0.000150331
0.000150449
0.000150567
0.000150685
0.000150803
0.000150921
0.00015104
0.000151158
0.000151277
0.000151397
0.000151516
0.000151636
0.000151756
0.000151876
0.000151996
0.000152116
0.000152237
0.000152358
0.000152479
0.0001526
0.000152721
0.000152843
0.000152965
0.000153087
0.000153209
0.000153331
0.000153454
0.000153577
0.0001537
0.000153823
0.000153947
0.00015407
0.000154194
0.000154318
0.000154442
0.000154567
0.000154691
0.000154816
0.000154941
0.000155067
0.000155192
0.000155318
0.000155444
0.00015557
0.000155696
0.000155822
0.000155949
0.000156076
0.000156203
0.00015633
0.000156458
0.000156585
0.000156713
0.000156841
0.000156969
0.000157098
0.000157227
0.000157356
0.000157485
0.000157614
0.000157743
0.000157873
0.000158003
0.000158133
0.000158263
0.000158394
0.000158524
0.000158655
0.000158786
0.000158918
0.000159049
0.000159181
0.000159313
0.000159445
0.000159577
0.000159709
0.000159842
0.000159975
0.000160108
0.000160241
0.000160375
0.000160508
0.000160642
0.000160776
0.00016091
0.000161045
0.000161179
0.000161314
0.000161449
0.000161584
0.00016172
0.000161855
0.000161991
0.000162127
0.000162263
0.0001624
0.000162536
0.000162673
0.00016281
0.000162947
0.000163084
0.000163222
0.000163359
0.000163497
0.000163635
0.000163774
0.000163912
0.000164051
0.00016419
0.000164329
0.000164468
0.000164607
0.000164747
0.000164887
0.000165027
0.000165167
0.000165307
0.000165448
0.000165588
0.000165729
0.00016587
0.000166011
0.000166153
0.000166294
0.000166436
0.000166578
0.00016672
0.000166863
0.000167005
0.000167148
0.000167291
0.000167434
0.000167577
0.00016772
0.000167864
0.000168007
0.000168151
0.000168295
0.00016844
0.000168584
0.000168729
0.000168873
0.000169018
0.000169163
0.000169308
0.000169454
0.000169599
0.000169745
0.000169891
0.000170037
0.000170183
0.00017033
0.000170476
0.000170623
0.00017077
0.000170917
0.000171064
0.000171211
0.000171359
0.000171506
0.000171654
0.000171802
0.00017195
0.000172098
0.000172247
0.000172395
0.000172544
0.000172693
0.000172842
0.000172991
0.00017314
0.000173289
0.000173439
0.000173588
0.000173738
0.000173888
0.000174038
0.000174188
0.000174339
0.000174489
0.00017464
0.00017479
0.000174941
0.000175092
0.000175243
0.000175394
0.000175546
0.000175697
0.000175849
0.000176
0.000176152
0.000176304
0.000176456
0.000176608
0.00017676
0.000176913
0.000177065
0.000177218
0.00017737
0.000177523
0.000177676
0.000177829
0.000177982
0.000178135
0.000178288
0.000178442
0.000178595
0.000178749
0.000178902
0.000179056
0.00017921
0.000179364
0.000179518
0.000179672
0.000179826
0.00017998
0.000180134
0.000180288
0.000180443
0.000180597
0.000180752
0.000180906
0.000181061
0.000181216
0.000181371
0.000181526
0.00018168
0.000181835
0.00018199
0.000182145
0.000182301
0.000182456
0.000182611
0.000182766
0.000182922
0.000183077
0.000183232
0.000183388
0.000183543
0.000183699
0.000183854
0.00018401
0.000184165
0.000184321
0.000184476
0.000184632
0.000184788
0.000184943
0.000185099
0.000185255
0.00018541
0.000185566
0.000185722
0.000185877
0.000186033
0.000186189
0.000186344
0.0001865
0.000186656
0.000186811
0.000186967
0.000187123
0.000187278
0.000187434
0.000187589
0.000187745
0.0001879
0.000188056
0.000188211
0.000188367
0.000188522
0.000188678
0.000188833
0.000188988
0.000189143
0.000189298
0.000189454
0.000189609
0.000189764
0.000189919
0.000190073
0.000190228
0.000190383
0.000190538
0.000190692
0.000190847
0.000191001
0.000191156
0.00019131
0.000191464
0.000191618
0.000191772
0.000191926
0.00019208
0.000192234
0.000192388
0.000192541
0.000192695
0.000192848
0.000193001
0.000193154
0.000193307
0.00019346
0.000193613
0.000193766
0.000193918
0.00019407
0.000194223
0.000194375
0.000194527
0.000194679
0.00019483
0.000194982
0.000195133
0.000195284
0.000195435
0.000195586
0.000195737
0.000195888
0.000196038
0.000196188
0.000196338
0.000196488
0.000196638
0.000196787
0.000196937
0.000197086
0.000197235
0.000197384
0.000197532
0.000197681
0.000197829
0.000197977
0.000198124
0.000198272
0.000198419
0.000198566
0.000198713
0.000198859
0.000199006
0.000199152
0.000199298
0.000199443
0.000199589
0.000199734
0.000199879
0.000200023
0.000200168
0.000200312
0.000200455
0.000200599
0.000200742
0.000200885
0.000201028
0.00020117
0.000201312
0.000201454
0.000201595
0.000201736
0.000201877
0.000202018
0.000202158
0.000202297
0.000202437
0.000202576
0.000202715
0.000202853
0.000202991
0.000203129
0.000203266
0.000203403
0.00020354
0.000203676
0.000203811
0.000203947
0.000204082
0.000204216
0.00020435
0.000204484
0.000204617
0.00020475
0.000204882
0.000205014
0.000205145
0.000205276
0.000205406
0.000205536
0.000205665
0.000205794
0.000205922
0.00020605
0.000206177
0.000206304
0.00020643
0.000206555
0.00020668
0.000206805
0.000206928
0.000207051
0.000207173
0.000207295
0.000207416
0.000207536
0.000207656
0.000207775
0.000207893
0.00020801
0.000208126
0.000208242
0.000208357
0.000208471
0.000208584
0.000208696
0.000208807
0.000208917
0.000209027
0.000209135
0.000209242
0.000209348
0.000209453
0.000209557
0.000209659
0.000209761
0.000209861
0.00020996
0.000210057
0.000210153
0.000210248
0.000210341
0.000210432
0.000210522
0.00021061
0.000210696
0.000210781
0.000210863
0.000210944
0.000211022
0.000211098
0.000211172
0.000211244
0.000211313
0.00021138
0.000211444
0.000211505
0.000211563
0.000211618
0.00021167
0.000211719
0.000211764
0.000211806
0.000211844
0.000211878
0.000211908
0.000211934
0.000211955
0.000211972
0.000211984
0.000211991
0.000211993
0.00021199
0.000211982
0.000211968
0.000211949
0.000211924
0.000211893
0.000211856
0.000211814
0.000211765
0.000211711
0.00021165
0.000211584
0.000211511
0.000211433
0.00021135
0.00021126
0.000211165
0.000211066
0.000210961
0.000210851
0.000210736
0.000210617
0.000210494
0.000210367
0.000210237
0.000210103
0.000209965
0.000209824
0.000209681
0.000209534
0.000209385
0.000209234
0.00020908
0.000208923
0.000208765
0.000208604
0.000208441
0.000208276
0.000208109
0.00020794
0.000207769
0.000207596
0.000207421
0.000207243
0.000207064
0.000206882
0.000206698
0.000206512
0.000206323
0.000206133
0.000205939
0.000205744
0.000205546
0.000205346
0.000205143
0.000204937
0.000204729
0.000204518
0.000204304
0.000204088
0.000203869
0.000203647
0.000203422
0.000203195
0.000202964
0.000202731
0.000202494
0.000202255
0.000202012
0.000201766
0.000201517
0.000201265
0.00020101
0.000200751
0.000200489
0.000200224
0.000199956
0.000199684
0.000199409
0.00019913
0.000198849
0.000198563
0.000198274
0.000197982
0.000197687
0.000197388
0.000197085
0.000196779
0.00019647
0.000196157
0.000195841
0.000195521
0.000195198
0.000194872
0.000194542
0.00019421
0.000193874
0.000193535
0.000193193
0.000192848
0.000192501
0.00019215
0.000191798
0.000191443
0.000191085
0.000190726
0.000190365
0.000190002
0.000189638
0.000189272
0.000188906
0.00018854
0.000188173
0.000187807
0.000187441
0.000187076
0.000186713
0.000186352
0.000185993
0.000185638
0.000185286
0.000184938
0.000184596
0.000184259
0.000183929
0.000183606
0.000183291
0.000182985
0.000182688
0.000182402
0.000182126
0.000181863
0.000181613
0.000181377
0.000181155
0.000180948
0.000180757
0.000180582
0.000180425
0.000180284
0.000180161
0.000180055
0.000179967
0.000179895
0.000179839
0.000179798
0.000179771
0.000179756
0.000179752
0.000179757
0.000179768
0.000179784
0.000179803
0.000179822
0.00017984
0.000179855
0.000179866
0.000179871
0.000179871
0.000179866
0.000179855
0.00017984
0.000179822
0.000179803
0.000179784
0.000179768
0.000179757
0.000179752
0.000179756
0.000179771
0.000179798
0.000179839
0.000179895
0.000179967
0.000180055
0.000180161
0.000180284
0.000180425
0.000180582
0.000180757
0.000180948
0.000181155
0.000181377
0.000181613
0.000181863
0.000182126
0.000182402
0.000182688
0.000182985
0.000183291
0.000183606
0.000183929
0.000184259
0.000184596
0.000184938
0.000185286
0.000185638
0.000185993
0.000186352
0.000186713
0.000187076
0.000187441
0.000187807
0.000188173
0.00018854
0.000188906
0.000189272
0.000189638
0.000190002
0.000190365
0.000190726
0.000191085
0.000191443
0.000191798
0.00019215
0.000192501
0.000192848
0.000193193
0.000193535
0.000193874
0.00019421
0.000194542
0.000194872
0.000195198
0.000195521
0.000195841
0.000196157
0.00019647
0.000196779
0.000197085
0.000197388
0.000197687
0.000197982
0.000198274
0.000198563
0.000198849
0.00019913
0.000199409
0.000199684
0.000199956
0.000200224
0.000200489
0.000200751
0.00020101
0.000201265
0.000201517
0.000201766
0.000202012
0.000202255
0.000202494
0.000202731
0.000202964
0.000203195
0.000203422
0.000203647
0.000203869
0.000204088
0.000204304
0.000204518
0.000204729
0.000204937
0.000205143
0.000205346
0.000205546
0.000205744
0.000205939
0.000206133
0.000206323
0.000206512
0.000206698
0.000206882
0.000207064
0.000207243
0.000207421
0.000207596
0.000207769
0.00020794
0.000208109
0.000208276
0.000208441
0.000208604
0.000208765
0.000208923
0.00020908
0.000209234
0.000209385
0.000209534
0.000209681
0.000209824
0.000209965
0.000210103
0.000210237
0.000210367
0.000210494
0.000210617
0.000210736
0.000210851
0.000210961
0.000211066
0.000211165
0.00021126
0.00021135
0.000211433
0.000211511
0.000211584
0.00021165
0.000211711
0.000211765
0.000211814
0.000211856
0.000211893
0.000211924
0.000211949
0.000211968
0.000211982
0.00021199
0.000211993
0.000211991
0.000211984
0.000211972
0.000211955
0.000211934
0.000211908
0.000211878
0.000211844
0.000211806
0.000211764
0.000211719
0.00021167
0.000211618
0.000211563
0.000211505
0.000211444
0.00021138
0.000211313
0.000211244
0.000211172
0.000211098
0.000211022
0.000210944
0.000210863
0.000210781
0.000210696
0.00021061
0.000210522
0.000210432
0.000210341
0.000210248
0.000210153
0.000210057
0.00020996
0.000209861
0.000209761
0.000209659
0.000209557
0.000209453
0.000209348
0.000209242
0.000209135
0.000209027
0.000208917
0.000208807
0.000208696
0.000208584
0.000208471
0.000208357
0.000208242
0.000208126
0.00020801
0.000207893
0.000207775
0.000207656
0.000207536
0.000207416
0.000207295
0.000207173
0.000207051
0.000206928
0.000206805
0.00020668
0.000206555
0.00020643
0.000206304
0.000206177
0.00020605
0.000205922
0.000205794
0.000205665
0.000205536
0.000205406
0.000205276
0.000205145
0.000205014
0.000204882
0.00020475
0.000204617
0.000204484
0.00020435
0.000204216
0.000204082
0.000203947
0.000203811
0.000203676
0.00020354
0.000203403
0.000203266
0.000203129
0.000202991
0.000202853
0.000202715
0.000202576
0.000202437
0.000202297
0.000202158
0.000202018
0.000201877
0.000201736
0.000201595
0.000201454
0.000201312
0.00020117
0.000201028
0.000200885
0.000200742
0.000200599
0.000200455
0.000200312
0.000200168
0.000200023
0.000199879
0.000199734
0.000199589
0.000199443
0.000199298
0.000199152
0.000199006
0.000198859
0.000198713
0.000198566
0.000198419
0.000198272
0.000198124
0.000197977
0.000197829
0.000197681
0.000197532
0.000197384
0.000197235
0.000197086
0.000196937
0.000196787
0.000196638
0.000196488
0.000196338
0.000196188
0.000196038
0.000195888
0.000195737
0.000195586
0.000195435
0.000195284
0.000195133
0.000194982
0.00019483
0.000194679
0.000194527
0.000194375
0.000194223
0.00019407
0.000193918
0.000193766
0.000193613
0.00019346
0.000193307
0.000193154
0.000193001
0.000192848
0.000192695
0.000192541
0.000192388
0.000192234
0.00019208
0.000191926
0.000191772
0.000191618
0.000191464
0.00019131
0.000191156
0.000191001
0.000190847
0.000190692
0.000190538
0.000190383
0.000190228
0.000190073
0.000189919
0.000189764
0.000189609
0.000189454
0.000189298
0.000189143
0.000188988
0.000188833
0.000188678
0.000188522
0.000188367
0.000188211
0.000188056
0.0001879
0.000187745
0.000187589
0.000187434
0.000187278
0.000187123
0.000186967
0.000186811
0.000186656
0.0001865
0.000186344
0.000186189
0.000186033
0.000185877
0.000185722
0.000185566
0.00018541
0.000185255
0.000185099
0.000184943
0.000184788
0.000184632
0.000184476
0.000184321
0.000184165
0.00018401
0.000183854
0.000183699
0.000183543
0.000183388
0.000183232
0.000183077
0.000182922
0.000182766
0.000182611
0.000182456
0.000182301
0.000182145
0.00018199
0.000181835
0.00018168
0.000181526
0.000181371
0.000181216
0.000181061
0.000180906
0.000180752
0.000180597
0.000180443
0.000180288
0.000180134
0.00017998
0.000179826
0.000179672
0.000179518
0.000179364
0.00017921
0.000179056
0.000178902
0.000178749
0.000178595
0.000178442
0.000178288
0.000178135
0.000177982
0.000177829
0.000177676
0.000177523
0.00017737
0.000177218
0.000177065
0.000176913
0.00017676
0.000176608
0.000176456
0.000176304
0.000176152
0.000176
0.000175849
0.000175697
0.000175546
0.000175394
0.000175243
0.000175092
0.000174941
0.00017479
0.00017464
0.000174489
0.000174339
0.000174188
0.000174038
0.000173888
0.000173738
0.000173588
0.000173439
0.000173289
0.00017314
0.000172991
0.000172842
0.000172693
0.000172544
0.000172395
0.000172247
0.000172098
0.00017195
0.000171802
0.000171654
0.000171506
0.000171359
0.000171211
0.000171064
0.000170917
0.00017077
0.000170623
0.000170476
0.00017033
0.000170183
0.000170037
0.000169891
0.000169745
0.000169599
0.000169454
0.000169308
0.000169163
0.000169018
0.000168873
0.000168729
0.000168584
0.00016844
0.000168295
0.000168151
0.000168007
0.000167864
0.00016772
0.000167577
0.000167434
0.000167291
0.000167148
0.000167005
0.000166863
0.00016672
0.000166578
0.000166436
0.000166294
0.000166153
0.000166011
0.00016587
0.000165729
0.000165588
0.000165448
0.000165307
0.000165167
0.000165027
0.000164887
0.000164747
0.000164607
0.000164468
0.000164329
0.00016419
0.000164051
0.000163912
0.000163774
0.000163635
0.000163497
0.000163359
0.000163222
0.000163084
0.000162947
0.00016281
0.000162673
0.000162536
0.0001624
0.000162263
0.000162127
0.000161991
0.000161855
0.00016172
0.000161584
0.000161449
0.000161314
0.000161179
0.000161045
0.00016091
0.000160776
0.000160642
0.000160508
0.000160375
0.000160241
0.000160108
0.000159975
0.000159842
0.000159709
0.000159577
0.000159445
0.000159313
0.000159181
0.000159049
0.000158918
0.000158786
0.000158655
0.000158524
0.000158394
0.000158263
0.000158133
0.000158003
0.000157873
0.000157743
0.000157614
0.000157485
0.000157356
0.000157227
0.000157098
0.000156969
0.000156841
0.000156713
0.000156585
0.000156458
0.00015633
0.000156203
0.000156076
0.000155949
0.000155822
0.000155696
0.00015557
0.000155444
0.000155318
0.000155192
0.000155067
0.000154941
0.000154816
0.000154691
0.000154567
0.000154442
0.000154318
0.000154194
0.00015407
0.000153947
0.000153823
0.0001537
0.000153577
0.000153454
0.000153331
0.000153209
0.000153087
0.000152965
0.000152843
0.000152721
0.0001526
0.000152479
0.000152358
0.000152237
0.000152116
0.000151996
0.000151876
0.000151756
0.000151636
0.000151516
0.000151397
0.000151277
0.000151158
0.00015104
0.000150921
0.000150803
0.000150685
0.000150567
0.000150449
0.000150331
0.000150214
0.000150097
0.00014998
0.000149863
0.000149746
0.00014963
0.000149514
0.000149398
0.000149282
0.000149166
0.000149051
0.000148936
0.000148821
0.000148706
0.000148591
0.000148477
0.000148363
0.000148249
0.000148135
0.000148022
0.000147908
0.000147795
0.000147682
0.000147569
0.000147457
0.000147344
0.000147232
0.00014712
0.000147009
0.000146897
0.000146786
0.000146675
0.000146564
0.000146453
0.000146342
0.000146232
0.000146122
0.000146012
0.000145902
0.000145793
0.000145683
0.000145574
0.000145465
0.000145357
0.000145248
0.00014514
0.000145032
0.000144924
0.000144816
0.000144708
0.000144601
0.000144494
0.000144387
0.00014428
0.000144174
0.000144068
0.000143961
0.000143856
0.00014375
0.000143644
0.000143539
0.000143434
0.000143329
0.000143224
0.00014312
0.000143016
0.000142912
0.000142808
0.000142704
0.000142601
0.000142497
0.000142394
0.000142292
0.000142189
0.000142086
0.000141984
0.000141882
0.00014178
0.000141679
0.000141577
0.000141476
0.000141375
0.000141274
0.000141174
0.000141073
0.000140973
0.000140873
0.000140774
0.000140674
0.000140575
0.000140476
0.000140377
0.000140278
0.00014018
0.000140081
0.000139983
0.000139885
0.000139788
0.00013969
0.000139593
0.000139496
0.000139399
0.000139303
0.000139206
0.00013911
0.000139014
0.000138918
0.000138823
0.000138728
0.000138633
0.000138538
0.000138443
0.000138349
0.000138254
0.00013816
0.000138067
0.000137973
0.00013788
0.000137787
0.000137694
0.000137601
0.000137509
0.000137416
0.000137324
0.000137233
0.000137141
0.00013705
0.000136959
0.000136868
0.000136777
0.000136687
0.000136597
0.000136507
0.000136417
0.000136327
0.000136238
0.000136149
0.00013606
0.000135972
0.000135883
0.000135795
0.000135707
0.00013562
0.000135532
0.000135445
0.000135358
0.000135272
0.000135185
0.000135099
0.000135013
0.000134928
0.000134842
0.000134757
0.000134672
0.000134588
0.000134503
0.000134419
0.000134335
0.000134251
0.000134168
0.000134085
0.000134002
0.000133919
0.000133837
0.000133755
0.000133673
0.000133592
0.00013351
0.000133429
0.000133348
0.000133268
0.000133188
0.000133108
0.000133028
0.000132949
0.00013287
0.000132791
0.000132712
0.000132634
0.000132556
0.000132479
0.000132401
0.000132324
0.000132247
0.000132171
0.000132095
0.000132019
0.000131943
0.000131868
0.000131793
0.000131718
0.000131644
0.00013157
0.000131496
0.000131423
0.00013135
0.000131277
0.000131205
0.000131133
0.000131061
0.000130989
0.000130918
0.000130847
0.000130777
0.000130707
0.000130637
0.000130568
0.000130499
0.00013043
0.000130362
0.000130294
0.000130226
0.000130159
0.000130092
0.000130025
0.000129959
0.000129893
0.000129828
0.000129763
0.000129698
0.000129634
0.00012957
0.000129507
0.000129444
0.000129381
0.000129319
0.000129257