/*--------------------------------*- C++ -*----------------------------------*\
| =========                 |                                                 |
| \\      /  F ield         | OpenFOAM: The Open Source CFD Toolbox           |
|  \\    /   O peration     | Version:  4.1                                   |
|   \\  /    A nd           | Web:      www.OpenFOAM.org                      |
|    \\/     M anipulation  |                                                 |
\*---------------------------------------------------------------------------*/
FoamFile
{
    version     2.0;
    format      ascii;
    class       volVectorField;
    location    "0.1";
    object      U;
}
// * * * * * * * * * * * * * * * * * * * * * * * * * * * * * * * * * * * * * //

dimensions      [0 1 -1 0 0 0 0];

internalField   nonuniform List<vector> 
3200
(
(-2 0 0)
(-2 0 0)
(-2 0 0)
(-2 0 0)
(-2 0 0)
(-2 0 0)
(-2 0 0)
(-2 0 0)
(-2 0 0)
(-2 0 0)
(-2 0 0)
(-2 0 0)
(-2 0 0)
(-2 0 0)
(-2 0 0)
(-2 0 0)
(-2 0 0)
(-2 0 0)
(-2 0 0)
(-2 0 0)
(-2 0 0)
(-2 0 0)
(-2 0 0)
(-2 0 0)
(-2 0 0)
(-2 0 0)
(-2 0 0)
(-2 0 0)
(-2 0 0)
(-2 0 0)
(-2 0 0)
(-2 0 0)
(-2 0 0)
(-2 0 0)
(-2 0 0)
(-2 0 0)
(-2 0 0)
(-2 0 0)
(-2 0 0)
(-2 0 0)
(-2 0 0)
(-2 0 0)
(-2 0 0)
(-2 0 0)
(-2 0 0)
(-2 0 0)
(-2 0 0)
(-2 0 0)
(-2 0 0)
(-2 0 0)
(-2 0 0)
(-2 0 0)
(-2 0 0)
(-2 0 0)
(-2 0 0)
(-2 0 0)
(-2 0 0)
(-2 0 0)
(-2 0 0)
(-2 0 0)
(-2 0 0)
(-2 0 0)
(-2 0 0)
(-2 0 0)
(-2 0 0)
(-2 0 0)
(-2 0 0)
(-2 0 0)
(-2 0 0)
(-2 0 0)
(-2 0 0)
(-2 0 0)
(-2 0 0)
(-2 0 0)
(-2 0 0)
(-2 0 0)
(-2 0 0)
(-2 0 0)
(-2 0 0)
(-2 0 0)
(-2 0 0)
(-2 0 0)
(-2 0 0)
(-2 0 0)
(-2 0 0)
(-2 0 0)
(-2 0 0)
(-2 0 0)
(-2 0 0)
(-2 0 0)
(-2 0 0)
(-2 0 0)
(-2 0 0)
(-2 0 0)
(-2 0 0)
(-2 0 0)
(-2 0 0)
(-2 0 0)
(-2 0 0)
(-2 0 0)
(-2 0 0)
(-2 0 0)
(-2 0 0)
(-2 0 0)
(-2 0 0)
(-2 0 0)
(-2 0 0)
(-2 0 0)
(-2 0 0)
(-2 0 0)
(-2 0 0)
(-2 0 0)
(-2 0 0)
(-2 0 0)
(-2 0 0)
(-2 0 0)
(-2 0 0)
(-2 0 0)
(-2 0 0)
(-2 0 0)
(-2 0 0)
(-2 0 0)
(-2 0 0)
(-2 0 0)
(-2 0 0)
(-2 0 0)
(-2 0 0)
(-2 0 0)
(-2 0 0)
(-2 0 0)
(-2 0 0)
(-2 0 0)
(-2 0 0)
(-2 0 0)
(-2 0 0)
(-2 0 0)
(-2 0 0)
(-2 0 0)
(-2 0 0)
(-2 0 0)
(-2 0 0)
(-2 0 0)
(-2 0 0)
(-2 0 0)
(-2 0 0)
(-2 0 0)
(-2 0 0)
(-2 0 0)
(-2 0 0)
(-2 0 0)
(-2 0 0)
(-2 0 0)
(-2 0 0)
(-2 0 0)
(-2 0 0)
(-2 0 0)
(-2 0 0)
(-2 0 0)
(-2 0 0)
(-2 0 0)
(-2 0 0)
(-2 0 0)
(-2 0 0)
(-2 0 0)
(-2 0 0)
(-2 0 0)
(-2 0 0)
(-2 0 0)
(-2 0 0)
(-2 0 0)
(-2 0 0)
(-2 0 0)
(-2 0 0)
(-2 0 0)
(-2 0 0)
(-2 0 0)
(-2 0 0)
(-2 0 0)
(-2 0 0)
(-2 0 0)
(-2 0 0)
(-2 0 0)
(-2 0 0)
(-2 0 0)
(-2 0 0)
(-2 0 0)
(-2 0 0)
(-2 0 0)
(-2 0 0)
(-2 0 0)
(-2 0 0)
(-2 0 0)
(-2 0 0)
(-2 0 0)
(-2 0 0)
(-2 0 0)
(-2 0 0)
(-2 0 0)
(-2 0 0)
(-2 0 0)
(-2 0 0)
(-2 0 0)
(-2 0 0)
(-2 0 0)
(-2 0 0)
(-2 0 0)
(-2 0 0)
(-2 0 0)
(-2 0 0)
(-2 0 0)
(-2 0 0)
(-2 0 0)
(-2 0 0)
(-2 0 0)
(-2 0 0)
(-2 0 0)
(-2 0 0)
(-2 0 0)
(-2 0 0)
(-2 0 0)
(-2 0 0)
(-2 0 0)
(-2 0 0)
(-2 0 0)
(-2 0 0)
(-2 0 0)
(-2 0 0)
(-2 0 0)
(-2 0 0)
(-2 0 0)
(-2 0 0)
(-2 0 0)
(-2 0 0)
(-2 0 0)
(-2 0 0)
(-2 0 0)
(-2 0 0)
(-2 0 0)
(-2 0 0)
(-2 0 0)
(-2 0 0)
(-2 0 0)
(-2 0 0)
(-2 0 0)
(-2 0 0)
(-2 0 0)
(-2 0 0)
(-2 0 0)
(-2 0 0)
(-2 0 0)
(-2 0 0)
(-2 0 0)
(-2 0 0)
(-2 0 0)
(-2 0 0)
(-2 0 0)
(-2 0 0)
(-2 0 0)
(-2 0 0)
(-2 0 0)
(-2 0 0)
(-2 0 0)
(-2 0 0)
(-2 0 0)
(-2 0 0)
(-2 0 0)
(-2 0 0)
(-2 0 0)
(-2 0 0)
(-2 0 0)
(-2 0 0)
(-2 0 0)
(-2 0 0)
(-2 0 0)
(-2 0 0)
(-2 0 0)
(-2 0 0)
(-2 0 0)
(-2 0 0)
(-2 0 0)
(-2 0 0)
(-2 0 0)
(-2 0 0)
(-2 0 0)
(-2 0 0)
(-2 0 0)
(-2 0 0)
(-2 0 0)
(-2 0 0)
(-2 0 0)
(-2 0 0)
(-2 0 0)
(-2 0 0)
(-2 0 0)
(-2 0 0)
(-2 0 0)
(-2 0 0)
(-2 0 0)
(-2 0 0)
(-2 0 0)
(-2 0 0)
(-2 0 0)
(-2 0 0)
(-2 0 0)
(-2 0 0)
(-2 0 0)
(-2 0 0)
(-2 0 0)
(-2 0 0)
(-2 0 0)
(-2 0 0)
(-2 0 0)
(-2 0 0)
(-2 0 0)
(-2 0 0)
(-2 0 0)
(-2 0 0)
(-2 0 0)
(-2 0 0)
(-2 0 0)
(-2 0 0)
(-2 0 0)
(-2 0 0)
(-2 0 0)
(-2 0 0)
(-2 0 0)
(-2 0 0)
(-2 0 0)
(-2 0 0)
(-2 0 0)
(-2 0 0)
(-2 0 0)
(-2 0 0)
(-2 0 0)
(-2 0 0)
(-2 0 0)
(-2 0 0)
(-2 0 0)
(-2 0 0)
(-2 0 0)
(-2 0 0)
(-2 0 0)
(-2 0 0)
(-2 0 0)
(-2 0 0)
(-2 0 0)
(-2 0 0)
(-2 0 0)
(-2 0 0)
(-2 0 0)
(-2 0 0)
(-2 0 0)
(-2 0 0)
(-2 0 0)
(-2 0 0)
(-2 0 0)
(-2 0 0)
(-2 0 0)
(-2 0 0)
(-2 0 0)
(-2 0 0)
(-2 0 0)
(-2 0 0)
(-2 0 0)
(-2 0 0)
(-2 0 0)
(-2 0 0)
(-2 0 0)
(-2 0 0)
(-2 0 0)
(-2 0 0)
(-2 0 0)
(-2 0 0)
(-2 0 0)
(-2 0 0)
(-2 0 0)
(-2 0 0)
(-2 0 0)
(-2 0 0)
(-2 0 0)
(-2 0 0)
(-2 0 0)
(-2 0 0)
(-2 0 0)
(-2 0 0)
(-2 0 0)
(-2 0 0)
(-2 0 0)
(-2 0 0)
(-2 0 0)
(-2 0 0)
(-2 0 0)
(-2 0 0)
(-2 0 0)
(-2 0 0)
(-2 0 0)
(-2 0 0)
(-2 0 0)
(-2 0 0)
(-2 0 0)
(-2 0 0)
(-2 0 0)
(-2 0 0)
(-2 0 0)
(-2 0 0)
(-2 0 0)
(-2 0 0)
(-2 0 0)
(-2 0 0)
(-2 0 0)
(-2 0 0)
(-2 0 0)
(-2 0 0)
(-2 0 0)
(-2 0 0)
(-2 0 0)
(-2 0 0)
(-2 0 0)
(-2 0 0)
(-2 0 0)
(-2 0 0)
(-2 0 0)
(-2 0 0)
(-2 0 0)
(-2 0 0)
(-2 0 0)
(-2 0 0)
(-2 0 0)
(-2 0 0)
(-2 0 0)
(-2 0 0)
(-2 0 0)
(-2 0 0)
(-2 0 0)
(-2 0 0)
(-2 0 0)
(-2 0 0)
(-2 0 0)
(-2 0 0)
(-2 0 0)
(-2 0 0)
(-2 0 0)
(-2 0 0)
(-2 0 0)
(-2 0 0)
(-2 0 0)
(-2 0 0)
(-2 0 0)
(-2 0 0)
(-2 0 0)
(-2 0 0)
(-2 0 0)
(-2 0 0)
(-2 0 0)
(-2 0 0)
(-2 0 0)
(-2 0 0)
(-2 0 0)
(-2 0 0)
(-2 0 0)
(-2 0 0)
(-2 0 0)
(-2 0 0)
(-2 0 0)
(-2 0 0)
(-2 0 0)
(-2 0 0)
(-2 0 0)
(-2 0 0)
(-2 0 0)
(-2 0 0)
(-2 0 0)
(-2 0 0)
(-2 0 0)
(-2 0 0)
(-2 0 0)
(-2 0 0)
(-2 0 0)
(-2 0 0)
(-2 0 0)
(-2 0 0)
(-2 0 0)
(-2 0 0)
(-2 0 0)
(-2 0 0)
(-2 0 0)
(-2 0 0)
(-2 0 0)
(-2 0 0)
(-2 0 0)
(-2 0 0)
(-2 0 0)
(-2 0 0)
(-2 0 0)
(-2 0 0)
(-2 0 0)
(-2 0 0)
(-2 0 0)
(-2 0 0)
(-2 0 0)
(-2 0 0)
(-2 0 0)
(-2 0 0)
(-2 0 0)
(-2 0 0)
(-2 0 0)
(-2 0 0)
(-2 0 0)
(-2 0 0)
(-2 0 0)
(-2 0 0)
(-2 0 0)
(-2 0 0)
(-2 0 0)
(-2 0 0)
(-2 0 0)
(-2 0 0)
(-2 0 0)
(-2 0 0)
(-2 0 0)
(-2 0 0)
(-2 0 0)
(-2 0 0)
(-2 0 0)
(-2 0 0)
(-2 0 0)
(-2 0 0)
(-2 0 0)
(-2 0 0)
(-2 0 0)
(-2 0 0)
(-2 0 0)
(-2 0 0)
(-2 0 0)
(-2 0 0)
(-2 0 0)
(-2 0 0)
(-2 0 0)
(-2 0 0)
(-2 0 0)
(-2 0 0)
(-2 0 0)
(-2 0 0)
(-2 0 0)
(-2 0 0)
(-2 0 0)
(-2 0 0)
(-2 0 0)
(-2 0 0)
(-2 0 0)
(-2 0 0)
(-2 0 0)
(-1.99999 0 0)
(-1.99999 0 0)
(-1.99999 0 0)
(-1.99999 0 0)
(-1.99999 0 0)
(-1.99999 0 0)
(-1.99999 0 0)
(-1.99999 0 0)
(-1.99999 0 0)
(-1.99999 0 0)
(-1.99999 0 0)
(-1.99998 0 0)
(-1.99998 0 0)
(-1.99998 0 0)
(-1.99998 0 0)
(-1.99998 0 0)
(-1.99998 0 0)
(-1.99997 0 0)
(-1.99997 0 0)
(-1.99997 0 0)
(-1.99997 0 0)
(-1.99996 0 0)
(-1.99996 0 0)
(-1.99996 0 0)
(-1.99995 0 0)
(-1.99995 0 0)
(-1.99994 0 0)
(-1.99994 0 0)
(-1.99993 0 0)
(-1.99993 0 0)
(-1.99992 0 0)
(-1.99991 0 0)
(-1.9999 0 0)
(-1.9999 0 0)
(-1.99989 0 0)
(-1.99988 0 0)
(-1.99987 0 0)
(-1.99986 0 0)
(-1.99985 0 0)
(-1.99983 0 0)
(-1.99982 0 0)
(-1.99981 0 0)
(-1.99979 0 0)
(-1.99977 0 0)
(-1.99976 0 0)
(-1.99974 0 0)
(-1.99972 0 0)
(-1.99969 0 0)
(-1.99967 0 0)
(-1.99965 0 0)
(-1.99962 0 0)
(-1.99959 0 0)
(-1.99956 0 0)
(-1.99953 0 0)
(-1.9995 0 0)
(-1.99946 0 0)
(-1.99942 0 0)
(-1.99938 0 0)
(-1.99934 0 0)
(-1.99929 0 0)
(-1.99925 0 0)
(-1.9992 0 0)
(-1.99914 0 0)
(-1.99908 0 0)
(-1.99902 0 0)
(-1.99896 0 0)
(-1.99889 0 0)
(-1.99882 0 0)
(-1.99875 0 0)
(-1.99867 0 0)
(-1.99858 0 0)
(-1.9985 0 0)
(-1.9984 0 0)
(-1.99831 0 0)
(-1.9982 0 0)
(-1.9981 0 0)
(-1.99798 0 0)
(-1.99787 0 0)
(-1.99774 0 0)
(-1.99761 0 0)
(-1.99748 0 0)
(-1.99733 0 0)
(-1.99718 0 0)
(-1.99703 0 0)
(-1.99687 0 0)
(-1.9967 0 0)
(-1.99652 0 0)
(-1.99633 0 0)
(-1.99614 0 0)
(-1.99594 0 0)
(-1.99573 0 0)
(-1.99551 0 0)
(-1.99529 0 0)
(-1.99505 0 0)
(-1.9948 0 0)
(-1.99455 0 0)
(-1.99429 0 0)
(-1.99401 0 0)
(-1.99373 0 0)
(-1.99343 0 0)
(-1.99313 0 0)
(-1.99281 0 0)
(-1.99248 0 0)
(-1.99214 0 0)
(-1.99179 0 0)
(-1.99143 0 0)
(-1.99106 0 0)
(-1.99067 0 0)
(-1.99027 0 0)
(-1.98986 0 0)
(-1.98944 0 0)
(-1.989 0 0)
(-1.98855 0 0)
(-1.98809 0 0)
(-1.98761 0 0)
(-1.98712 0 0)
(-1.98662 0 0)
(-1.9861 0 0)
(-1.98557 0 0)
(-1.98502 0 0)
(-1.98446 0 0)
(-1.98389 0 0)
(-1.9833 0 0)
(-1.98269 0 0)
(-1.98207 0 0)
(-1.98144 0 0)
(-1.98079 0 0)
(-1.98012 0 0)
(-1.97944 0 0)
(-1.97875 0 0)
(-1.97803 0 0)
(-1.97731 0 0)
(-1.97656 0 0)
(-1.97581 0 0)
(-1.97503 0 0)
(-1.97424 0 0)
(-1.97343 0 0)
(-1.97261 0 0)
(-1.97177 0 0)
(-1.97092 0 0)
(-1.97005 0 0)
(-1.96916 0 0)
(-1.96826 0 0)
(-1.96734 0 0)
(-1.96641 0 0)
(-1.96546 0 0)
(-1.96449 0 0)
(-1.96351 0 0)
(-1.96251 0 0)
(-1.9615 0 0)
(-1.96047 0 0)
(-1.95942 0 0)
(-1.95836 0 0)
(-1.95728 0 0)
(-1.95619 0 0)
(-1.95508 0 0)
(-1.95395 0 0)
(-1.95281 0 0)
(-1.95165 0 0)
(-1.95048 0 0)
(-1.9493 0 0)
(-1.94809 0 0)
(-1.94688 0 0)
(-1.94564 0 0)
(-1.9444 0 0)
(-1.94313 0 0)
(-1.94186 0 0)
(-1.94056 0 0)
(-1.93926 0 0)
(-1.93793 0 0)
(-1.9366 0 0)
(-1.93525 0 0)
(-1.93388 0 0)
(-1.93251 0 0)
(-1.93111 0 0)
(-1.92971 0 0)
(-1.92829 0 0)
(-1.92685 0 0)
(-1.9254 0 0)
(-1.92394 0 0)
(-1.92247 0 0)
(-1.92098 0 0)
(-1.91948 0 0)
(-1.91797 0 0)
(-1.91644 0 0)
(-1.9149 0 0)
(-1.91335 0 0)
(-1.91179 0 0)
(-1.91021 0 0)
(-1.90862 0 0)
(-1.90702 0 0)
(-1.90541 0 0)
(-1.90378 0 0)
(-1.90215 0 0)
(-1.9005 0 0)
(-1.89884 0 0)
(-1.89717 0 0)
(-1.89549 0 0)
(-1.8938 0 0)
(-1.89209 0 0)
(-1.89038 0 0)
(-1.88865 0 0)
(-1.88692 0 0)
(-1.88517 0 0)
(-1.88341 0 0)
(-1.88165 0 0)
(-1.87987 0 0)
(-1.87808 0 0)
(-1.87628 0 0)
(-1.87448 0 0)
(-1.87266 0 0)
(-1.87083 0 0)
(-1.869 0 0)
(-1.86715 0 0)
(-1.8653 0 0)
(-1.86344 0 0)
(-1.86157 0 0)
(-1.85968 0 0)
(-1.85779 0 0)
(-1.8559 0 0)
(-1.85399 0 0)
(-1.85207 0 0)
(-1.85015 0 0)
(-1.84822 0 0)
(-1.84628 0 0)
(-1.84433 0 0)
(-1.84237 0 0)
(-1.84041 0 0)
(-1.83844 0 0)
(-1.83646 0 0)
(-1.83447 0 0)
(-1.83248 0 0)
(-1.83048 0 0)
(-1.82847 0 0)
(-1.82645 0 0)
(-1.82443 0 0)
(-1.8224 0 0)
(-1.82036 0 0)
(-1.81832 0 0)
(-1.81627 0 0)
(-1.81421 0 0)
(-1.81215 0 0)
(-1.81008 0 0)
(-1.808 0 0)
(-1.80592 0 0)
(-1.80383 0 0)
(-1.80173 0 0)
(-1.79963 0 0)
(-1.79753 0 0)
(-1.79541 0 0)
(-1.79329 0 0)
(-1.79117 0 0)
(-1.78904 0 0)
(-1.7869 0 0)
(-1.78476 0 0)
(-1.78261 0 0)
(-1.78046 0 0)
(-1.7783 0 0)
(-1.77614 0 0)
(-1.77397 0 0)
(-1.77179 0 0)
(-1.76961 0 0)
(-1.76743 0 0)
(-1.76524 0 0)
(-1.76305 0 0)
(-1.76085 0 0)
(-1.75864 0 0)
(-1.75644 0 0)
(-1.75422 0 0)
(-1.752 0 0)
(-1.74978 0 0)
(-1.74756 0 0)
(-1.74532 0 0)
(-1.74309 0 0)
(-1.74085 0 0)
(-1.7386 0 0)
(-1.73635 0 0)
(-1.7341 0 0)
(-1.73184 0 0)
(-1.72958 0 0)
(-1.72732 0 0)
(-1.72505 0 0)
(-1.72277 0 0)
(-1.7205 0 0)
(-1.71822 0 0)
(-1.71593 0 0)
(-1.71364 0 0)
(-1.71135 0 0)
(-1.70905 0 0)
(-1.70675 0 0)
(-1.70445 0 0)
(-1.70214 0 0)
(-1.69983 0 0)
(-1.69752 0 0)
(-1.6952 0 0)
(-1.69288 0 0)
(-1.69055 0 0)
(-1.68822 0 0)
(-1.68589 0 0)
(-1.68356 0 0)
(-1.68122 0 0)
(-1.67888 0 0)
(-1.67653 0 0)
(-1.67419 0 0)
(-1.67184 0 0)
(-1.66948 0 0)
(-1.66713 0 0)
(-1.66477 0 0)
(-1.6624 0 0)
(-1.66004 0 0)
(-1.65767 0 0)
(-1.6553 0 0)
(-1.65292 0 0)
(-1.65055 0 0)
(-1.64817 0 0)
(-1.64578 0 0)
(-1.6434 0 0)
(-1.64101 0 0)
(-1.63862 0 0)
(-1.63622 0 0)
(-1.63383 0 0)
(-1.63143 0 0)
(-1.62903 0 0)
(-1.62662 0 0)
(-1.62422 0 0)
(-1.62181 0 0)
(-1.61939 0 0)
(-1.61698 0 0)
(-1.61456 0 0)
(-1.61214 0 0)
(-1.60972 0 0)
(-1.6073 0 0)
(-1.60487 0 0)
(-1.60244 0 0)
(-1.60001 0 0)
(-1.59758 0 0)
(-1.59515 0 0)
(-1.59271 0 0)
(-1.59027 0 0)
(-1.58783 0 0)
(-1.58538 0 0)
(-1.58293 0 0)
(-1.58049 0 0)
(-1.57803 0 0)
(-1.57558 0 0)
(-1.57313 0 0)
(-1.57067 0 0)
(-1.56821 0 0)
(-1.56575 0 0)
(-1.56329 0 0)
(-1.56082 0 0)
(-1.55835 0 0)
(-1.55588 0 0)
(-1.55341 0 0)
(-1.55094 0 0)
(-1.54846 0 0)
(-1.54599 0 0)
(-1.54351 0 0)
(-1.54103 0 0)
(-1.53854 0 0)
(-1.53606 0 0)
(-1.53357 0 0)
(-1.53108 0 0)
(-1.52859 0 0)
(-1.5261 0 0)
(-1.52361 0 0)
(-1.52111 0 0)
(-1.51862 0 0)
(-1.51612 0 0)
(-1.51362 0 0)
(-1.51111 0 0)
(-1.50861 0 0)
(-1.5061 0 0)
(-1.5036 0 0)
(-1.50109 0 0)
(-1.49858 0 0)
(-1.49606 0 0)
(-1.49355 0 0)
(-1.49103 0 0)
(-1.48852 0 0)
(-1.486 0 0)
(-1.48348 0 0)
(-1.48095 0 0)
(-1.47843 0 0)
(-1.4759 0 0)
(-1.47338 0 0)
(-1.47085 0 0)
(-1.46832 0 0)
(-1.46579 0 0)
(-1.46325 0 0)
(-1.46072 0 0)
(-1.45818 0 0)
(-1.45565 0 0)
(-1.45311 0 0)
(-1.45057 0 0)
(-1.44802 0 0)
(-1.44548 0 0)
(-1.44294 0 0)
(-1.44039 0 0)
(-1.43784 0 0)
(-1.43529 0 0)
(-1.43274 0 0)
(-1.43019 0 0)
(-1.42764 0 0)
(-1.42508 0 0)
(-1.42253 0 0)
(-1.41997 0 0)
(-1.41741 0 0)
(-1.41485 0 0)
(-1.41229 0 0)
(-1.40973 0 0)
(-1.40716 0 0)
(-1.4046 0 0)
(-1.40203 0 0)
(-1.39946 0 0)
(-1.39689 0 0)
(-1.39432 0 0)
(-1.39175 0 0)
(-1.38918 0 0)
(-1.3866 0 0)
(-1.38403 0 0)
(-1.38145 0 0)
(-1.37887 0 0)
(-1.37629 0 0)
(-1.37371 0 0)
(-1.37113 0 0)
(-1.36854 0 0)
(-1.36596 0 0)
(-1.36337 0 0)
(-1.36079 0 0)
(-1.3582 0 0)
(-1.35561 0 0)
(-1.35302 0 0)
(-1.35043 0 0)
(-1.34783 0 0)
(-1.34524 0 0)
(-1.34265 0 0)
(-1.34005 0 0)
(-1.33745 0 0)
(-1.33485 0 0)
(-1.33225 0 0)
(-1.32965 0 0)
(-1.32705 0 0)
(-1.32445 0 0)
(-1.32184 0 0)
(-1.31924 0 0)
(-1.31663 0 0)
(-1.31402 0 0)
(-1.31141 0 0)
(-1.3088 0 0)
(-1.30619 0 0)
(-1.30358 0 0)
(-1.30097 0 0)
(-1.29835 0 0)
(-1.29574 0 0)
(-1.29312 0 0)
(-1.2905 0 0)
(-1.28788 0 0)
(-1.28526 0 0)
(-1.28264 0 0)
(-1.28002 0 0)
(-1.2774 0 0)
(-1.27477 0 0)
(-1.27215 0 0)
(-1.26952 0 0)
(-1.2669 0 0)
(-1.26427 0 0)
(-1.26164 0 0)
(-1.25901 0 0)
(-1.25638 0 0)
(-1.25375 0 0)
(-1.25111 0 0)
(-1.24848 0 0)
(-1.24584 0 0)
(-1.24321 0 0)
(-1.24057 0 0)
(-1.23793 0 0)
(-1.23529 0 0)
(-1.23265 0 0)
(-1.23001 0 0)
(-1.22737 0 0)
(-1.22472 0 0)
(-1.22208 0 0)
(-1.21944 0 0)
(-1.21679 0 0)
(-1.21414 0 0)
(-1.21149 0 0)
(-1.20884 0 0)
(-1.2062 0 0)
(-1.20354 0 0)
(-1.20089 0 0)
(-1.19824 0 0)
(-1.19559 0 0)
(-1.19293 0 0)
(-1.19028 0 0)
(-1.18762 0 0)
(-1.18496 0 0)
(-1.1823 0 0)
(-1.17964 0 0)
(-1.17698 0 0)
(-1.17432 0 0)
(-1.17166 0 0)
(-1.169 0 0)
(-1.16633 0 0)
(-1.16367 0 0)
(-1.161 0 0)
(-1.15834 0 0)
(-1.15567 0 0)
(-1.153 0 0)
(-1.15033 0 0)
(-1.14766 0 0)
(-1.14499 0 0)
(-1.14232 0 0)
(-1.13964 0 0)
(-1.13697 0 0)
(-1.13429 0 0)
(-1.13162 0 0)
(-1.12894 0 0)
(-1.12627 0 0)
(-1.12359 0 0)
(-1.12091 0 0)
(-1.11823 0 0)
(-1.11555 0 0)
(-1.11287 0 0)
(-1.11018 0 0)
(-1.1075 0 0)
(-1.10482 0 0)
(-1.10213 0 0)
(-1.09944 0 0)
(-1.09676 0 0)
(-1.09407 0 0)
(-1.09138 0 0)
(-1.08869 0 0)
(-1.086 0 0)
(-1.08331 0 0)
(-1.08062 0 0)
(-1.07793 0 0)
(-1.07523 0 0)
(-1.07254 0 0)
(-1.06984 0 0)
(-1.06715 0 0)
(-1.06445 0 0)
(-1.06175 0 0)
(-1.05906 0 0)
(-1.05636 0 0)
(-1.05366 0 0)
(-1.05096 0 0)
(-1.04826 0 0)
(-1.04555 0 0)
(-1.04285 0 0)
(-1.04015 0 0)
(-1.03744 0 0)
(-1.03474 0 0)
(-1.03203 0 0)
(-1.02932 0 0)
(-1.02662 0 0)
(-1.02391 0 0)
(-1.0212 0 0)
(-1.01849 0 0)
(-1.01578 0 0)
(-1.01306 0 0)
(-1.01035 0 0)
(-1.00764 0 0)
(-1.00493 0 0)
(-1.00221 0 0)
(-0.999495 0 0)
(-0.996779 0 0)
(-0.994062 0 0)
(-0.991345 0 0)
(-0.988626 0 0)
(-0.985907 0 0)
(-0.983187 0 0)
(-0.980467 0 0)
(-0.977745 0 0)
(-0.975023 0 0)
(-0.9723 0 0)
(-0.969577 0 0)
(-0.966852 0 0)
(-0.964127 0 0)
(-0.961402 0 0)
(-0.958675 0 0)
(-0.955948 0 0)
(-0.95322 0 0)
(-0.950492 0 0)
(-0.947762 0 0)
(-0.945032 0 0)
(-0.942302 0 0)
(-0.93957 0 0)
(-0.936838 0 0)
(-0.934105 0 0)
(-0.931372 0 0)
(-0.928638 0 0)
(-0.925903 0 0)
(-0.923167 0 0)
(-0.920431 0 0)
(-0.917694 0 0)
(-0.914957 0 0)
(-0.912219 0 0)
(-0.90948 0 0)
(-0.90674 0 0)
(-0.904 0 0)
(-0.901259 0 0)
(-0.898517 0 0)
(-0.895775 0 0)
(-0.893032 0 0)
(-0.890289 0 0)
(-0.887545 0 0)
(-0.8848 0 0)
(-0.882054 0 0)
(-0.879308 0 0)
(-0.876561 0 0)
(-0.873814 0 0)
(-0.871066 0 0)
(-0.868317 0 0)
(-0.865568 0 0)
(-0.862818 0 0)
(-0.860068 0 0)
(-0.857317 0 0)
(-0.854565 0 0)
(-0.851813 0 0)
(-0.84906 0 0)
(-0.846306 0 0)
(-0.843552 0 0)
(-0.840797 0 0)
(-0.838042 0 0)
(-0.835286 0 0)
(-0.832529 0 0)
(-0.829772 0 0)
(-0.827014 0 0)
(-0.824256 0 0)
(-0.821497 0 0)
(-0.818738 0 0)
(-0.815978 0 0)
(-0.813217 0 0)
(-0.810456 0 0)
(-0.807694 0 0)
(-0.804932 0 0)
(-0.802169 0 0)
(-0.799406 0 0)
(-0.796642 0 0)
(-0.793878 0 0)
(-0.791113 0 0)
(-0.788347 0 0)
(-0.785581 0 0)
(-0.782814 0 0)
(-0.780047 0 0)
(-0.77728 0 0)
(-0.774511 0 0)
(-0.771743 0 0)
(-0.768973 0 0)
(-0.766204 0 0)
(-0.763433 0 0)
(-0.760663 0 0)
(-0.757892 0 0)
(-0.75512 0 0)
(-0.752348 0 0)
(-0.749575 0 0)
(-0.746802 0 0)
(-0.744028 0 0)
(-0.741254 0 0)
(-0.738479 0 0)
(-0.735704 0 0)
(-0.732929 0 0)
(-0.730153 0 0)
(-0.727376 0 0)
(-0.724599 0 0)
(-0.721822 0 0)
(-0.719044 0 0)
(-0.716266 0 0)
(-0.713487 0 0)
(-0.710708 0 0)
(-0.707928 0 0)
(-0.705148 0 0)
(-0.702368 0 0)
(-0.699587 0 0)
(-0.696806 0 0)
(-0.694024 0 0)
(-0.691242 0 0)
(-0.68846 0 0)
(-0.685677 0 0)
(-0.682894 0 0)
(-0.68011 0 0)
(-0.677326 0 0)
(-0.674542 0 0)
(-0.671757 0 0)
(-0.668972 0 0)
(-0.666186 0 0)
(-0.6634 0 0)
(-0.660614 0 0)
(-0.657828 0 0)
(-0.655041 0 0)
(-0.652253 0 0)
(-0.649466 0 0)
(-0.646678 0 0)
(-0.64389 0 0)
(-0.641101 0 0)
(-0.638312 0 0)
(-0.635523 0 0)
(-0.632734 0 0)
(-0.629944 0 0)
(-0.627154 0 0)
(-0.624363 0 0)
(-0.621573 0 0)
(-0.618782 0 0)
(-0.615991 0 0)
(-0.613199 0 0)
(-0.610407 0 0)
(-0.607615 0 0)
(-0.604823 0 0)
(-0.602031 0 0)
(-0.599238 0 0)
(-0.596445 0 0)
(-0.593652 0 0)
(-0.590858 0 0)
(-0.588065 0 0)
(-0.585271 0 0)
(-0.582477 0 0)
(-0.579683 0 0)
(-0.576888 0 0)
(-0.574093 0 0)
(-0.571299 0 0)
(-0.568504 0 0)
(-0.565708 0 0)
(-0.562913 0 0)
(-0.560118 0 0)
(-0.557322 0 0)
(-0.554526 0 0)
(-0.55173 0 0)
(-0.548934 0 0)
(-0.546138 0 0)
(-0.543342 0 0)
(-0.540545 0 0)
(-0.537749 0 0)
(-0.534952 0 0)
(-0.532156 0 0)
(-0.529359 0 0)
(-0.526562 0 0)
(-0.523765 0 0)
(-0.520969 0 0)
(-0.518172 0 0)
(-0.515375 0 0)
(-0.512578 0 0)
(-0.50978 0 0)
(-0.506983 0 0)
(-0.504186 0 0)
(-0.501389 0 0)
(-0.498592 0 0)
(-0.495795 0 0)
(-0.492998 0 0)
(-0.490201 0 0)
(-0.487404 0 0)
(-0.484608 0 0)
(-0.481811 0 0)
(-0.479014 0 0)
(-0.476218 0 0)
(-0.473421 0 0)
(-0.470625 0 0)
(-0.467829 0 0)
(-0.465032 0 0)
(-0.462236 0 0)
(-0.459441 0 0)
(-0.456645 0 0)
(-0.45385 0 0)
(-0.451054 0 0)
(-0.448259 0 0)
(-0.445465 0 0)
(-0.44267 0 0)
(-0.439876 0 0)
(-0.437082 0 0)
(-0.434288 0 0)
(-0.431494 0 0)
(-0.428701 0 0)
(-0.425908 0 0)
(-0.423116 0 0)
(-0.420323 0 0)
(-0.417532 0 0)
(-0.41474 0 0)
(-0.411949 0 0)
(-0.409159 0 0)
(-0.406368 0 0)
(-0.403579 0 0)
(-0.400789 0 0)
(-0.398001 0 0)
(-0.395212 0 0)
(-0.392425 0 0)
(-0.389638 0 0)
(-0.386851 0 0)
(-0.384065 0 0)
(-0.38128 0 0)
(-0.378495 0 0)
(-0.375711 0 0)
(-0.372928 0 0)
(-0.370146 0 0)
(-0.367364 0 0)
(-0.364583 0 0)
(-0.361803 0 0)
(-0.359023 0 0)
(-0.356245 0 0)
(-0.353467 0 0)
(-0.350691 0 0)
(-0.347915 0 0)
(-0.345141 0 0)
(-0.342367 0 0)
(-0.339595 0 0)
(-0.336824 0 0)
(-0.334053 0 0)
(-0.331285 0 0)
(-0.328517 0 0)
(-0.325751 0 0)
(-0.322986 0 0)
(-0.320222 0 0)
(-0.31746 0 0)
(-0.314699 0 0)
(-0.31194 0 0)
(-0.309183 0 0)
(-0.306427 0 0)
(-0.303673 0 0)
(-0.300921 0 0)
(-0.298171 0 0)
(-0.295422 0 0)
(-0.292676 0 0)
(-0.289932 0 0)
(-0.28719 0 0)
(-0.28445 0 0)
(-0.281712 0 0)
(-0.278977 0 0)
(-0.276245 0 0)
(-0.273515 0 0)
(-0.270788 0 0)
(-0.268064 0 0)
(-0.265342 0 0)
(-0.262624 0 0)
(-0.259909 0 0)
(-0.257197 0 0)
(-0.254489 0 0)
(-0.251784 0 0)
(-0.249083 0 0)
(-0.246386 0 0)
(-0.243693 0 0)
(-0.241005 0 0)
(-0.23832 0 0)
(-0.23564 0 0)
(-0.232966 0 0)
(-0.230296 0 0)
(-0.227631 0 0)
(-0.224972 0 0)
(-0.222318 0 0)
(-0.21967 0 0)
(-0.217029 0 0)
(-0.214394 0 0)
(-0.211766 0 0)
(-0.209145 0 0)
(-0.206531 0 0)
(-0.203926 0 0)
(-0.201328 0 0)
(-0.198739 0 0)
(-0.196159 0 0)
(-0.193588 0 0)
(-0.191027 0 0)
(-0.188476 0 0)
(-0.185937 0 0)
(-0.183408 0 0)
(-0.180892 0 0)
(-0.178388 0 0)
(-0.175897 0 0)
(-0.17342 0 0)
(-0.170958 0 0)
(-0.16851 0 0)
(-0.166079 0 0)
(-0.163665 0 0)
(-0.161269 0 0)
(-0.158891 0 0)
(-0.156533 0 0)
(-0.154195 0 0)
(-0.151879 0 0)
(-0.149586 0 0)
(-0.147317 0 0)
(-0.145073 0 0)
(-0.142855 0 0)
(-0.140665 0 0)
(-0.138504 0 0)
(-0.136374 0 0)
(-0.134274 0 0)
(-0.132209 0 0)
(-0.130177 0 0)
(-0.128182 0 0)
(-0.126224 0 0)
(-0.124305 0 0)
(-0.122426 0 0)
(-0.120589 0 0)
(-0.118795 0 0)
(-0.117045 0 0)
(-0.11534 0 0)
(-0.113682 0 0)
(-0.112071 0 0)
(-0.110508 0 0)
(-0.108993 0 0)
(-0.107527 0 0)
(-0.106109 0 0)
(-0.104741 0 0)
(-0.103421 0 0)
(-0.102148 0 0)
(-0.100923 0 0)
(-0.0997429 0 0)
(-0.0986073 0 0)
(-0.0975144 0 0)
(-0.0964621 0 0)
(-0.0954486 0 0)
(-0.0944715 0 0)
(-0.0935285 0 0)
(-0.092617 0 0)
(-0.0917345 0 0)
(-0.0908783 0 0)
(-0.090046 0 0)
(-0.0892348 0 0)
(-0.0884424 0 0)
(-0.0876662 0 0)
(-0.0869041 0 0)
(-0.0861539 0 0)
(-0.0854136 0 0)
(-0.0846815 0 0)
(-0.0839558 0 0)
(-0.0832353 0 0)
(-0.0825185 0 0)
(-0.0818045 0 0)
(-0.0810923 0 0)
(-0.0803811 0 0)
(-0.0796703 0 0)
(-0.0789594 0 0)
(-0.078248 0 0)
(-0.0775358 0 0)
(-0.0768227 0 0)
(-0.0761084 0 0)
(-0.0753929 0 0)
(-0.0746763 0 0)
(-0.0739586 0 0)
(-0.0732398 0 0)
(-0.0725201 0 0)
(-0.0717995 0 0)
(-0.0710782 0 0)
(-0.0703563 0 0)
(-0.069634 0 0)
(-0.0689115 0 0)
(-0.0681888 0 0)
(-0.0674662 0 0)
(-0.0667438 0 0)
(-0.0660217 0 0)
(-0.0653 0 0)
(-0.0645789 0 0)
(-0.0638585 0 0)
(-0.0631389 0 0)
(-0.0624202 0 0)
(-0.0617025 0 0)
(-0.060986 0 0)
(-0.0602706 0 0)
(-0.0595565 0 0)
(-0.0588436 0 0)
(-0.0581322 0 0)
(-0.0574223 0 0)
(-0.0567138 0 0)
(-0.0560069 0 0)
(-0.0553015 0 0)
(-0.0545978 0 0)
(-0.0538958 0 0)
(-0.0531954 0 0)
(-0.0524967 0 0)
(-0.0517997 0 0)
(-0.0511045 0 0)
(-0.050411 0 0)
(-0.0497193 0 0)
(-0.0490294 0 0)
(-0.0483412 0 0)
(-0.0476548 0 0)
(-0.0469702 0 0)
(-0.0462873 0 0)
(-0.0456062 0 0)
(-0.0449269 0 0)
(-0.0442493 0 0)
(-0.0435734 0 0)
(-0.0428993 0 0)
(-0.0422269 0 0)
(-0.0415562 0 0)
(-0.0408873 0 0)
(-0.04022 0 0)
(-0.0395544 0 0)
(-0.0388904 0 0)
(-0.0382281 0 0)
(-0.0375674 0 0)
(-0.0369083 0 0)
(-0.0362508 0 0)
(-0.0355949 0 0)
(-0.0349406 0 0)
(-0.0342879 0 0)
(-0.0336367 0 0)
(-0.032987 0 0)
(-0.0323389 0 0)
(-0.0316922 0 0)
(-0.0310471 0 0)
(-0.0304035 0 0)
(-0.0297614 0 0)
(-0.0291208 0 0)
(-0.0284817 0 0)
(-0.027844 0 0)
(-0.0272079 0 0)
(-0.0265732 0 0)
(-0.0259401 0 0)
(-0.0253084 0 0)
(-0.0246782 0 0)
(-0.0240496 0 0)
(-0.0234225 0 0)
(-0.0227968 0 0)
(-0.0221728 0 0)
(-0.0215502 0 0)
(-0.0209292 0 0)
(-0.0203097 0 0)
(-0.0196918 0 0)
(-0.0190755 0 0)
(-0.0184607 0 0)
(-0.0178475 0 0)
(-0.0172358 0 0)
(-0.0166256 0 0)
(-0.0160169 0 0)
(-0.0154096 0 0)
(-0.0148038 0 0)
(-0.0141993 0 0)
(-0.0135961 0 0)
(-0.0129941 0 0)
(-0.0123932 0 0)
(-0.0117932 0 0)
(-0.0111939 0 0)
(-0.0105953 0 0)
(-0.00999705 0 0)
(-0.00939895 0 0)
(-0.00880077 0 0)
(-0.00820223 0 0)
(-0.00760307 0 0)
(-0.00700303 0 0)
(-0.00640186 0 0)
(-0.00579934 0 0)
(-0.00519529 0 0)
(-0.00458959 0 0)
(-0.00398217 0 0)
(-0.00337305 0 0)
(-0.00276232 0 0)
(-0.00215013 0 0)
(-0.00153674 0 0)
(-0.000922422 0 0)
(-0.000307538 0 0)
(0.000307538 0 0)
(0.000922422 0 0)
(0.00153674 0 0)
(0.00215013 0 0)
(0.00276232 0 0)
(0.00337305 0 0)
(0.00398217 0 0)
(0.00458959 0 0)
(0.00519529 0 0)
(0.00579934 0 0)
(0.00640186 0 0)
(0.00700303 0 0)
(0.00760307 0 0)
(0.00820223 0 0)
(0.00880077 0 0)
(0.00939895 0 0)
(0.00999705 0 0)
(0.0105953 0 0)
(0.0111939 0 0)
(0.0117932 0 0)
(0.0123932 0 0)
(0.0129941 0 0)
(0.0135961 0 0)
(0.0141993 0 0)
(0.0148038 0 0)
(0.0154096 0 0)
(0.0160169 0 0)
(0.0166256 0 0)
(0.0172358 0 0)
(0.0178475 0 0)
(0.0184607 0 0)
(0.0190755 0 0)
(0.0196918 0 0)
(0.0203097 0 0)
(0.0209292 0 0)
(0.0215502 0 0)
(0.0221728 0 0)
(0.0227968 0 0)
(0.0234225 0 0)
(0.0240496 0 0)
(0.0246782 0 0)
(0.0253084 0 0)
(0.0259401 0 0)
(0.0265732 0 0)
(0.0272079 0 0)
(0.027844 0 0)
(0.0284817 0 0)
(0.0291208 0 0)
(0.0297614 0 0)
(0.0304035 0 0)
(0.0310471 0 0)
(0.0316922 0 0)
(0.0323389 0 0)
(0.032987 0 0)
(0.0336367 0 0)
(0.0342879 0 0)
(0.0349406 0 0)
(0.0355949 0 0)
(0.0362508 0 0)
(0.0369083 0 0)
(0.0375674 0 0)
(0.0382281 0 0)
(0.0388904 0 0)
(0.0395544 0 0)
(0.04022 0 0)
(0.0408873 0 0)
(0.0415562 0 0)
(0.0422269 0 0)
(0.0428993 0 0)
(0.0435734 0 0)
(0.0442493 0 0)
(0.0449269 0 0)
(0.0456062 0 0)
(0.0462873 0 0)
(0.0469702 0 0)
(0.0476548 0 0)
(0.0483412 0 0)
(0.0490294 0 0)
(0.0497193 0 0)
(0.050411 0 0)
(0.0511045 0 0)
(0.0517997 0 0)
(0.0524967 0 0)
(0.0531954 0 0)
(0.0538958 0 0)
(0.0545978 0 0)
(0.0553015 0 0)
(0.0560069 0 0)
(0.0567138 0 0)
(0.0574223 0 0)
(0.0581322 0 0)
(0.0588436 0 0)
(0.0595565 0 0)
(0.0602706 0 0)
(0.060986 0 0)
(0.0617025 0 0)
(0.0624202 0 0)
(0.0631389 0 0)
(0.0638585 0 0)
(0.0645789 0 0)
(0.0653 0 0)
(0.0660217 0 0)
(0.0667438 0 0)
(0.0674662 0 0)
(0.0681888 0 0)
(0.0689115 0 0)
(0.069634 0 0)
(0.0703563 0 0)
(0.0710782 0 0)
(0.0717995 0 0)
(0.0725201 0 0)
(0.0732398 0 0)
(0.0739586 0 0)
(0.0746763 0 0)
(0.0753929 0 0)
(0.0761084 0 0)
(0.0768227 0 0)
(0.0775358 0 0)
(0.078248 0 0)
(0.0789594 0 0)
(0.0796703 0 0)
(0.0803811 0 0)
(0.0810923 0 0)
(0.0818045 0 0)
(0.0825185 0 0)
(0.0832353 0 0)
(0.0839558 0 0)
(0.0846815 0 0)
(0.0854136 0 0)
(0.0861539 0 0)
(0.0869041 0 0)
(0.0876662 0 0)
(0.0884424 0 0)
(0.0892348 0 0)
(0.090046 0 0)
(0.0908783 0 0)
(0.0917345 0 0)
(0.092617 0 0)
(0.0935285 0 0)
(0.0944715 0 0)
(0.0954486 0 0)
(0.0964621 0 0)
(0.0975144 0 0)
(0.0986073 0 0)
(0.0997429 0 0)
(0.100923 0 0)
(0.102148 0 0)
(0.103421 0 0)
(0.104741 0 0)
(0.106109 0 0)
(0.107527 0 0)
(0.108993 0 0)
(0.110508 0 0)
(0.112071 0 0)
(0.113682 0 0)
(0.11534 0 0)
(0.117045 0 0)
(0.118795 0 0)
(0.120589 0 0)
(0.122426 0 0)
(0.124305 0 0)
(0.126224 0 0)
(0.128182 0 0)
(0.130177 0 0)
(0.132209 0 0)
(0.134274 0 0)
(0.136374 0 0)
(0.138504 0 0)
(0.140665 0 0)
(0.142855 0 0)
(0.145073 0 0)
(0.147317 0 0)
(0.149586 0 0)
(0.151879 0 0)
(0.154195 0 0)
(0.156533 0 0)
(0.158891 0 0)
(0.161269 0 0)
(0.163665 0 0)
(0.166079 0 0)
(0.16851 0 0)
(0.170958 0 0)
(0.17342 0 0)
(0.175897 0 0)
(0.178388 0 0)
(0.180892 0 0)
(0.183408 0 0)
(0.185937 0 0)
(0.188476 0 0)
(0.191027 0 0)
(0.193588 0 0)
(0.196159 0 0)
(0.198739 0 0)
(0.201328 0 0)
(0.203926 0 0)
(0.206531 0 0)
(0.209145 0 0)
(0.211766 0 0)
(0.214394 0 0)
(0.217029 0 0)
(0.21967 0 0)
(0.222318 0 0)
(0.224972 0 0)
(0.227631 0 0)
(0.230296 0 0)
(0.232966 0 0)
(0.23564 0 0)
(0.23832 0 0)
(0.241005 0 0)
(0.243693 0 0)
(0.246386 0 0)
(0.249083 0 0)
(0.251784 0 0)
(0.254489 0 0)
(0.257197 0 0)
(0.259909 0 0)
(0.262624 0 0)
(0.265342 0 0)
(0.268064 0 0)
(0.270788 0 0)
(0.273515 0 0)
(0.276245 0 0)
(0.278977 0 0)
(0.281712 0 0)
(0.28445 0 0)
(0.28719 0 0)
(0.289932 0 0)
(0.292676 0 0)
(0.295422 0 0)
(0.298171 0 0)
(0.300921 0 0)
(0.303673 0 0)
(0.306427 0 0)
(0.309183 0 0)
(0.31194 0 0)
(0.314699 0 0)
(0.31746 0 0)
(0.320222 0 0)
(0.322986 0 0)
(0.325751 0 0)
(0.328517 0 0)
(0.331285 0 0)
(0.334053 0 0)
(0.336824 0 0)
(0.339595 0 0)
(0.342367 0 0)
(0.345141 0 0)
(0.347915 0 0)
(0.350691 0 0)
(0.353467 0 0)
(0.356245 0 0)
(0.359023 0 0)
(0.361803 0 0)
(0.364583 0 0)
(0.367364 0 0)
(0.370146 0 0)
(0.372928 0 0)
(0.375711 0 0)
(0.378495 0 0)
(0.38128 0 0)
(0.384065 0 0)
(0.386851 0 0)
(0.389638 0 0)
(0.392425 0 0)
(0.395212 0 0)
(0.398001 0 0)
(0.400789 0 0)
(0.403579 0 0)
(0.406368 0 0)
(0.409159 0 0)
(0.411949 0 0)
(0.41474 0 0)
(0.417532 0 0)
(0.420323 0 0)
(0.423116 0 0)
(0.425908 0 0)
(0.428701 0 0)
(0.431494 0 0)
(0.434288 0 0)
(0.437082 0 0)
(0.439876 0 0)
(0.44267 0 0)
(0.445465 0 0)
(0.448259 0 0)
(0.451054 0 0)
(0.45385 0 0)
(0.456645 0 0)
(0.459441 0 0)
(0.462236 0 0)
(0.465032 0 0)
(0.467829 0 0)
(0.470625 0 0)
(0.473421 0 0)
(0.476218 0 0)
(0.479014 0 0)
(0.481811 0 0)
(0.484608 0 0)
(0.487404 0 0)
(0.490201 0 0)
(0.492998 0 0)
(0.495795 0 0)
(0.498592 0 0)
(0.501389 0 0)
(0.504186 0 0)
(0.506983 0 0)
(0.50978 0 0)
(0.512578 0 0)
(0.515375 0 0)
(0.518172 0 0)
(0.520969 0 0)
(0.523765 0 0)
(0.526562 0 0)
(0.529359 0 0)
(0.532156 0 0)
(0.534952 0 0)
(0.537749 0 0)
(0.540545 0 0)
(0.543342 0 0)
(0.546138 0 0)
(0.548934 0 0)
(0.55173 0 0)
(0.554526 0 0)
(0.557322 0 0)
(0.560118 0 0)
(0.562913 0 0)
(0.565708 0 0)
(0.568504 0 0)
(0.571299 0 0)
(0.574093 0 0)
(0.576888 0 0)
(0.579683 0 0)
(0.582477 0 0)
(0.585271 0 0)
(0.588065 0 0)
(0.590858 0 0)
(0.593652 0 0)
(0.596445 0 0)
(0.599238 0 0)
(0.602031 0 0)
(0.604823 0 0)
(0.607615 0 0)
(0.610407 0 0)
(0.613199 0 0)
(0.615991 0 0)
(0.618782 0 0)
(0.621573 0 0)
(0.624363 0 0)
(0.627154 0 0)
(0.629944 0 0)
(0.632734 0 0)
(0.635523 0 0)
(0.638312 0 0)
(0.641101 0 0)
(0.64389 0 0)
(0.646678 0 0)
(0.649466 0 0)
(0.652253 0 0)
(0.655041 0 0)
(0.657828 0 0)
(0.660614 0 0)
(0.6634 0 0)
(0.666186 0 0)
(0.668972 0 0)
(0.671757 0 0)
(0.674542 0 0)
(0.677326 0 0)
(0.68011 0 0)
(0.682894 0 0)
(0.685677 0 0)
(0.68846 0 0)
(0.691242 0 0)
(0.694024 0 0)
(0.696806 0 0)
(0.699587 0 0)
(0.702368 0 0)
(0.705148 0 0)
(0.707928 0 0)
(0.710708 0 0)
(0.713487 0 0)
(0.716266 0 0)
(0.719044 0 0)
(0.721822 0 0)
(0.724599 0 0)
(0.727376 0 0)
(0.730153 0 0)
(0.732929 0 0)
(0.735704 0 0)
(0.738479 0 0)
(0.741254 0 0)
(0.744028 0 0)
(0.746802 0 0)
(0.749575 0 0)
(0.752348 0 0)
(0.75512 0 0)
(0.757892 0 0)
(0.760663 0 0)
(0.763433 0 0)
(0.766204 0 0)
(0.768973 0 0)
(0.771743 0 0)
(0.774511 0 0)
(0.77728 0 0)
(0.780047 0 0)
(0.782814 0 0)
(0.785581 0 0)
(0.788347 0 0)
(0.791113 0 0)
(0.793878 0 0)
(0.796642 0 0)
(0.799406 0 0)
(0.802169 0 0)
(0.804932 0 0)
(0.807694 0 0)
(0.810456 0 0)
(0.813217 0 0)
(0.815978 0 0)
(0.818738 0 0)
(0.821497 0 0)
(0.824256 0 0)
(0.827014 0 0)
(0.829772 0 0)
(0.832529 0 0)
(0.835286 0 0)
(0.838042 0 0)
(0.840797 0 0)
(0.843552 0 0)
(0.846306 0 0)
(0.84906 0 0)
(0.851813 0 0)
(0.854565 0 0)
(0.857317 0 0)
(0.860068 0 0)
(0.862818 0 0)
(0.865568 0 0)
(0.868317 0 0)
(0.871066 0 0)
(0.873814 0 0)
(0.876561 0 0)
(0.879308 0 0)
(0.882054 0 0)
(0.8848 0 0)
(0.887545 0 0)
(0.890289 0 0)
(0.893032 0 0)
(0.895775 0 0)
(0.898517 0 0)
(0.901259 0 0)
(0.904 0 0)
(0.90674 0 0)
(0.90948 0 0)
(0.912219 0 0)
(0.914957 0 0)
(0.917694 0 0)
(0.920431 0 0)
(0.923167 0 0)
(0.925903 0 0)
(0.928638 0 0)
(0.931372 0 0)
(0.934105 0 0)
(0.936838 0 0)
(0.93957 0 0)
(0.942302 0 0)
(0.945032 0 0)
(0.947762 0 0)
(0.950492 0 0)
(0.95322 0 0)
(0.955948 0 0)
(0.958675 0 0)
(0.961402 0 0)
(0.964127 0 0)
(0.966852 0 0)
(0.969577 0 0)
(0.9723 0 0)
(0.975023 0 0)
(0.977745 0 0)
(0.980467 0 0)
(0.983187 0 0)
(0.985907 0 0)
(0.988626 0 0)
(0.991345 0 0)
(0.994062 0 0)
(0.996779 0 0)
(0.999495 0 0)
(1.00221 0 0)
(1.00493 0 0)
(1.00764 0 0)
(1.01035 0 0)
(1.01306 0 0)
(1.01578 0 0)
(1.01849 0 0)
(1.0212 0 0)
(1.02391 0 0)
(1.02662 0 0)
(1.02932 0 0)
(1.03203 0 0)
(1.03474 0 0)
(1.03744 0 0)
(1.04015 0 0)
(1.04285 0 0)
(1.04555 0 0)
(1.04826 0 0)
(1.05096 0 0)
(1.05366 0 0)
(1.05636 0 0)
(1.05906 0 0)
(1.06175 0 0)
(1.06445 0 0)
(1.06715 0 0)
(1.06984 0 0)
(1.07254 0 0)
(1.07523 0 0)
(1.07793 0 0)
(1.08062 0 0)
(1.08331 0 0)
(1.086 0 0)
(1.08869 0 0)
(1.09138 0 0)
(1.09407 0 0)
(1.09676 0 0)
(1.09944 0 0)
(1.10213 0 0)
(1.10482 0 0)
(1.1075 0 0)