/*--------------------------------*- C++ -*----------------------------------*\
| =========                 |                                                 |
| \\      /  F ield         | OpenFOAM: The Open Source CFD Toolbox           |
|  \\    /   O peration     | Version:  4.1                                   |
|   \\  /    A nd           | Web:      www.OpenFOAM.org                      |
|    \\/     M anipulation  |                                                 |
\*---------------------------------------------------------------------------*/
FoamFile
{
    version     2.0;
    format      ascii;
    class       volVectorField;
    location    "0.162";
    object      U;
}
// * * * * * * * * * * * * * * * * * * * * * * * * * * * * * * * * * * * * * //

dimensions      [0 1 -1 0 0 0 0];

internalField   nonuniform List<vector> 
1600
(
(1.463e-05 -1.61952e-05 0)
(1.27234e-05 3.47136e-05 0)
(-8.53863e-05 0.000127591 0)
(-0.000301744 0.000235053 0)
(-0.000639707 0.000340876 0)
(-0.00109008 0.00043579 0)
(-0.00163667 0.000514606 0)
(-0.00225943 0.000574686 0)
(-0.00293668 0.000615015 0)
(-0.00364636 0.000635622 0)
(-0.00436696 0.00063721 0)
(-0.00507811 0.000620922 0)
(-0.00576087 0.000588179 0)
(-0.00639804 0.000540584 0)
(-0.00697428 0.000479852 0)
(-0.00747619 0.000407783 0)
(-0.0078924 0.000326232 0)
(-0.00821361 0.000237108 0)
(-0.00843265 0.000142371 0)
(-0.0085445 4.40381e-05 0)
(-0.00854637 -5.58172e-05 0)
(-0.00843777 -0.000155059 0)
(-0.00822052 -0.000251495 0)
(-0.00789886 -0.000342884 0)
(-0.00747944 -0.000426954 0)
(-0.00697139 -0.000501431 0)
(-0.0063863 -0.000564071 0)
(-0.00573813 -0.000612718 0)
(-0.00504316 -0.000645359 0)
(-0.0043198 -0.000660208 0)
(-0.00358828 -0.000655801 0)
(-0.00287031 -0.000631126 0)
(-0.00218856 -0.000585789 0)
(-0.00156586 -0.000520247 0)
(-0.00102419 -0.000436151 0)
(-0.000583225 -0.000336865 0)
(-0.000258113 -0.000228315 0)
(-5.63141e-05 -0.000120372 0)
(2.77259e-05 -2.94325e-05 0)
(1.82084e-05 1.83373e-05 0)
(-3.87038e-05 -1.69039e-05 0)
(-0.000223512 0.000212845 0)
(-0.000652446 0.000598968 0)
(-0.00137259 0.00103853 0)
(-0.00239181 0.0014698 0)
(-0.00368888 0.00185626 0)
(-0.00522503 0.00217703 0)
(-0.00695108 0.00242119 0)
(-0.00881253 0.00258438 0)
(-0.0107531 0.00266648 0)
(-0.0127172 0.00267018 0)
(-0.0146513 0.00260005 0)
(-0.0165055 0.00246185 0)
(-0.0182342 0.00226213 0)
(-0.0197962 0.00200798 0)
(-0.0211556 0.00170683 0)
(-0.022282 0.00136638 0)
(-0.0231503 0.000994571 0)
(-0.0237414 0.000599547 0)
(-0.0240419 0.000189687 0)
(-0.0240444 -0.000226396 0)
(-0.0237479 -0.000639852 0)
(-0.0231576 -0.00104161 0)
(-0.0222851 -0.0014224 0)
(-0.0211484 -0.00177287 0)
(-0.0197722 -0.00208364 0)
(-0.0181877 -0.00234551 0)
(-0.016432 -0.00254962 0)
(-0.0145484 -0.00268774 0)
(-0.0125854 -0.00275257 0)
(-0.010596 -0.00273818 0)
(-0.0086366 -0.0026405 0)
(-0.00676556 -0.002458 0)
(-0.00504094 -0.00219268 0)
(-0.00351788 -0.00185137 0)
(-0.00224476 -0.00144775 0)
(-0.00125797 -0.0010056 0)
(-0.000574831 -0.000563803 0)
(-0.000182459 -0.000185255 0)
(-2.85473e-05 2.86564e-05 0)
(-0.000134649 7.7884e-05 0)
(-0.000620314 0.000634768 0)
(-0.00147683 0.00143887 0)
(-0.00275603 0.00232412 0)
(-0.00446405 0.00318393 0)
(-0.00656941 0.0039518 0)
(-0.00901646 0.00458799 0)
(-0.0117343 0.00507086 0)
(-0.0146437 0.00539107 0)
(-0.017662 0.0055477 0)
(-0.0207067 0.00554552 0)
(-0.0236981 0.0053932 0)
(-0.0265612 0.00510205 0)
(-0.029227 0.00468513 0)
(-0.0316335 0.00415673 0)
(-0.0337262 0.00353196 0)
(-0.0354587 0.0028266 0)
(-0.0367932 0.00205694 0)
(-0.0377004 0.00123976 0)
(-0.0381603 0.0003923 0)
(-0.0381618 -0.000467693 0)
(-0.0377036 -0.00132202 0)
(-0.0367938 -0.00215207 0)
(-0.0354503 -0.00293888 0)
(-0.0337008 -0.00366332 0)
(-0.0315828 -0.00430635 0)
(-0.0291435 -0.00484927 0)
(-0.0264392 -0.00527425 0)
(-0.0235351 -0.00556475 0)
(-0.0205037 -0.00570629 0)
(-0.0174243 -0.00568723 0)
(-0.0143806 -0.00549981 0)
(-0.0114587 -0.00514152 0)
(-0.00874366 -0.0046169 0)
(-0.00631583 -0.00393995 0)
(-0.00424508 -0.00313772 0)
(-0.00258397 -0.00225552 0)
(-0.00135883 -0.0013647 0)
(-0.000556713 -0.000574824 0)
(-0.000118339 -5.15079e-05 0)
(-0.000249258 0.000292199 0)
(-0.00108779 0.00135484 0)
(-0.00241971 0.00271202 0)
(-0.00428794 0.00415269 0)
(-0.00668874 0.00553269 0)
(-0.00957771 0.00675742 0)
(-0.0128833 0.00776796 0)
(-0.0165163 0.00853096 0)
(-0.0203773 0.0090313 0)
(-0.0243624 0.00926678 0)
(-0.0283676 0.00924434 0)
(-0.0322922 0.00897731 0)
(-0.0360409 0.00848349 0)
(-0.0395259 0.00778379 0)
(-0.0426681 0.0069013 0)
(-0.0453979 0.00586065 0)
(-0.0476559 0.00468765 0)
(-0.0493938 0.00340908 0)
(-0.0505743 0.00205257 0)
(-0.0511717 0.000646553 0)
(-0.0511724 -0.000779752 0)
(-0.0505745 -0.00219639 0)
(-0.0493886 -0.00357275 0)
(-0.047638 -0.00487776 0)
(-0.0453581 -0.00608014 0)
(-0.042597 -0.00714878 0)
(-0.0394148 -0.00805334 0)
(-0.0358833 -0.00876491 0)
(-0.0320851 -0.00925691 0)
(-0.0281124 -0.00950619 0)
(-0.0240653 -0.00949436 0)
(-0.0200494 -0.00920947 0)
(-0.0161729 -0.00864811 0)
(-0.0125428 -0.00781798 0)
(-0.00925997 -0.00674152 0)
(-0.00641276 -0.00546053 0)
(-0.00406935 -0.00404274 0)
(-0.00226825 -0.00259077 0)
(-0.00100506 -0.00125455 0)
(-0.00022759 -0.000246981 0)
(-0.000369709 0.000635266 0)
(-0.00157809 0.00239807 0)
(-0.00340275 0.00445247 0)
(-0.00587067 0.00655855 0)
(-0.00896209 0.00854392 0)
(-0.012616 0.0102906 0)
(-0.0167439 0.0117226 0)
(-0.021239 0.0127955 0)
(-0.025984 0.0134886 0)
(-0.0308568 0.0137988 0)
(-0.0357356 0.0137354 0)
(-0.0405023 0.0133171 0)
(-0.0450451 0.0125692 0)
(-0.0492609 0.0115214 0)
(-0.0530567 0.0102072 0)
(-0.0563508 0.00866217 0)
(-0.0590734 0.00692398 0)
(-0.0611675 0.00503171 0)
(-0.0625895 0.00302575 0)
(-0.0633093 0.000947713 0)
(-0.0633107 -0.00115965 0)
(-0.0625918 -0.00325253 0)
(-0.0611652 -0.00528626 0)
(-0.059058 -0.00721551 0)
(-0.0563121 -0.00899475 0)
(-0.0529839 -0.0105788 0)
(-0.0491438 -0.0119238 0)
(-0.0448761 -0.0129878 0)
(-0.0402773 -0.0137328 0)
(-0.0354555 -0.0141254 0)
(-0.0305277 -0.0141396 0)
(-0.0256177 -0.0137585 0)
(-0.0208523 -0.0129775 0)
(-0.0163573 -0.0118075 0)
(-0.0122522 -0.0102793 0)
(-0.00864318 -0.0084492 0)
(-0.00561557 -0.00640596 0)
(-0.00322407 -0.00427948 0)
(-0.00147931 -0.00225172 0)
(-0.000343405 -0.000567845 0)
(-0.00048982 0.00110758 0)
(-0.00206744 0.00377005 0)
(-0.00438504 0.00667092 0)
(-0.00745101 0.0095536 0)
(-0.0112258 0.0122263 0)
(-0.0156288 0.0145535 0)
(-0.0205526 0.0164455 0)
(-0.0258726 0.0178492 0)
(-0.0314541 0.0187395 0)
(-0.0371587 0.019113 0)
(-0.0428489 0.0189827 0)
(-0.0483917 0.0183733 0)
(-0.0536617 0.0173184 0)
(-0.0585432 0.0158582 0)
(-0.062932 0.0140373 0)
(-0.0667364 0.0119039 0)
(-0.0698784 0.00950893 0)
(-0.0722943 0.00690524 0)
(-0.0739352 0.00414763 0)
(-0.0747673 0.00129251 0)
(-0.0747727 -0.00160215 0)
(-0.0739491 -0.00447701 0)
(-0.0723105 -0.00727156 0)
(-0.069887 -0.00992449 0)
(-0.0667254 -0.0123743 0)
(-0.0628883 -0.0145599 0)
(-0.0584545 -0.0164222 0)
(-0.053518 -0.0179049 0)
(-0.0481867 -0.0189565 0)
(-0.0425816 -0.0195325 0)
(-0.036834 -0.0195978 0)
(-0.0310832 -0.0191297 0)
(-0.0254727 -0.0181214 0)
(-0.0201456 -0.0165862 0)
(-0.0152396 -0.0145623 0)
(-0.0108797 -0.0121187 0)
(-0.00717028 -0.0093624 0)
(-0.00418576 -0.0064456 0)
(-0.00195575 -0.00357448 0)
(-0.000459583 -0.00101552 0)
(-0.000606974 0.00170592 0)
(-0.00254556 0.00546709 0)
(-0.00534811 0.009366 0)
(-0.00900404 0.0131378 0)
(-0.0134522 0.0165787 0)
(-0.0185901 0.0195413 0)
(-0.0242899 0.0219267 0)
(-0.030408 0.0236756 0)
(-0.0367927 0.0247611 0)
(-0.0432896 0.0251813 0)
(-0.0497468 0.0249537 0)
(-0.0560183 0.0241105 0)
(-0.0619669 0.0226951 0)
(-0.0674666 0.0207587 0)
(-0.0724038 0.0183589 0)
(-0.0766791 0.0155574 0)
(-0.0802078 0.0124195 0)
(-0.0829209 0.0090133 0)
(-0.0847652 0.00540918 0)
(-0.0857042 0.00167967 0)
(-0.0857182 -0.00210075 0)
(-0.0848046 -0.00585584 0)
(-0.082978 -0.0095079 0)
(-0.0802709 -0.0129782 0)
(-0.0767331 -0.0161878 0)
(-0.0724324 -0.0190583 0)
(-0.0674536 -0.0215138 0)
(-0.0618983 -0.0234819 0)
(-0.055884 -0.0248965 0)
(-0.0495421 -0.0257002 0)
(-0.0430166 -0.0258474 0)
(-0.0364607 -0.0253081 0)
(-0.0300334 -0.0240718 0)
(-0.0238949 -0.0221526 0)
(-0.0182015 -0.0195941 0)
(-0.0130982 -0.0164756 0)
(-0.00871098 -0.0129185 0)
(-0.00513619 -0.00909265 0)
(-0.00242471 -0.00522223 0)
(-0.000573631 -0.00158782 0)
(-0.000720515 0.00242586 0)
(-0.00300972 0.00748176 0)
(-0.0062866 0.0125307 0)
(-0.0105222 0.017305 0)
(-0.0156331 0.0215948 0)
(-0.0214935 0.0252461 0)
(-0.0279539 0.0281549 0)
(-0.0348507 0.0302596 0)
(-0.0420145 0.031534 0)
(-0.0492753 0.0319797 0)
(-0.0564676 0.0316212 0)
(-0.0634334 0.0304995 0)
(-0.0700252 0.0286691 0)
(-0.0761081 0.0261938 0)
(-0.0815611 0.023145 0)
(-0.0862783 0.0195992 0)
(-0.09017 0.0156372 0)
(-0.0931629 0.0113432 0)
(-0.0952007 0.00680428 0)
(-0.0962446 0.00210991 0)
(-0.0962731 -0.00264791 0)
(-0.0952832 -0.00737505 0)
(-0.0932898 -0.0119756 0)
(-0.0903263 -0.0163522 0)
(-0.086445 -0.0204074 0)
(-0.0817167 -0.0240443 0)
(-0.0762308 -0.0271684 0)
(-0.070095 -0.0296902 0)
(-0.063434 -0.0315269 0)
(-0.0563888 -0.0326067 0)
(-0.0491142 -0.0328717 0)
(-0.0417765 -0.0322825 0)
(-0.0345498 -0.030823 0)
(-0.0276119 -0.0285056 0)
(-0.0211384 -0.0253767 0)
(-0.015296 -0.0215227 0)
(-0.0102339 -0.017076 0)
(-0.0060723 -0.0122197 0)
(-0.00288455 -0.00719132 0)
(-0.00068515 -0.00228165 0)
(-0.000830822 0.00326319 0)
(-0.00346128 0.00980613 0)
(-0.00720251 0.0161565 0)
(-0.0120081 0.0220473 0)
(-0.0177721 0.0272668 0)
(-0.0243448 0.0316591 0)
(-0.0315537 0.0351195 0)
(-0.0392146 0.0375876 0)
(-0.0471396 0.0390412 0)
(-0.0551432 0.0394886 0)
(-0.0630466 0.0389629 0)
(-0.0706807 0.0375163 0)
(-0.0778887 0.0352158 0)
(-0.0845282 0.0321395 0)
(-0.090472 0.0283737 0)
(-0.0956094 0.0240106 0)
(-0.0998465 0.0191477 0)
(-0.103107 0.0138859 0)
(-0.105332 0.00832948 0)
(-0.106481 0.00258579 0)
(-0.106532 -0.00323512 0)
(-0.105479 -0.00902058 0)
(-0.103338 -0.0146557 0)
(-0.100143 -0.0200239 0)
(-0.0959459 -0.025008 0)
(-0.0908206 -0.0294914 0)
(-0.0848591 -0.0333601 0)
(-0.0781734 -0.0365054 0)
(-0.0708943 -0.0388266 0)
(-0.0631706 -0.0402351 0)
(-0.0551674 -0.0406585 0)
(-0.0470633 -0.0400458 0)
(-0.0390476 -0.0383723 0)
(-0.031316 -0.035646 0)
(-0.0240647 -0.0319128 0)
(-0.0174834 -0.0272631 0)
(-0.0117463 -0.0218363 0)
(-0.0069991 -0.0158255 0)
(-0.00333815 -0.00947857 0)
(-0.000794886 -0.00309446 0)
(-0.000938788 0.00421459 0)
(-0.00390363 0.0124336 0)
(-0.00810168 0.020236 0)
(-0.0134698 0.0273571 0)
(-0.0198794 0.0335871 0)
(-0.0271564 0.0387721 0)
(-0.0351043 0.0428106 0)
(-0.0435176 0.0456477 0)
(-0.0521896 0.0472684 0)
(-0.060919 0.0476908 0)
(-0.0695139 0.0469595 0)
(-0.0777949 0.0451402 0)
(-0.0855969 0.0423143 0)
(-0.0927708 0.0385756 0)
(-0.0991848 0.0340265 0)
(-0.104724 0.0287764 0)
(-0.109293 0.0229396 0)
(-0.112812 0.0166346 0)
(-0.11522 0.00998342 0)
(-0.116477 0.00311147 0)
(-0.116557 -0.0038528 0)
(-0.115455 -0.0107779 0)
(-0.113186 -0.0175295 0)
(-0.109782 -0.0239712 0)
(-0.105297 -0.0299654 0)
(-0.0998024 -0.0353749 0)
(-0.0933938 -0.0400649 0)
(-0.0861854 -0.0439059 0)
(-0.0783128 -0.0467772 0)
(-0.0699315 -0.0485713 0)
(-0.0612155 -0.0491987 0)
(-0.0523559 -0.0485936 0)
(-0.0435571 -0.0467197 0)
(-0.0350331 -0.043577 0)
(-0.027002 -0.0392076 0)
(-0.019678 -0.0337018 0)
(-0.0132618 -0.0272032 0)
(-0.00792598 -0.0199116 0)
(-0.00379069 -0.0120832 0)
(-0.000904181 -0.00402506 0)
(-0.00104553 0.00527796 0)
(-0.00434104 0.0153597 0)
(-0.0089917 0.0247636 0)
(-0.0149178 0.0332288 0)
(-0.0219682 0.0405497 0)
(-0.0299434 0.046578 0)
(-0.0386228 0.0512196 0)
(-0.0477784 0.0544289 0)
(-0.0571846 0.0562021 0)
(-0.0666242 0.0565705 0)
(-0.0758926 0.0555933 0)
(-0.0848004 0.053352 0)
(-0.0931752 0.0499449 0)
(-0.100863 0.045483 0)
(-0.107727 0.0400865 0)
(-0.113652 0.0338823 0)
(-0.118539 0.0270027 0)
(-0.122308 0.019584 0)
(-0.124897 0.0117661 0)
(-0.126264 0.00369238 0)
(-0.126382 -0.00449016 0)
(-0.125247 -0.0126312 0)
(-0.122869 -0.020577 0)
(-0.11928 -0.0281711 0)
(-0.114533 -0.0352549 0)
(-0.108699 -0.0416697 0)
(-0.101872 -0.0472586 0)
(-0.0941678 -0.0518699 0)
(-0.085726 -0.0553607 0)
(-0.0767071 -0.057602 0)
(-0.0672935 -0.058484 0)
(-0.0576876 -0.0579229 0)
(-0.0481094 -0.055867 0)
(-0.0387917 -0.0523042 0)
(-0.0299754 -0.0472688 0)
(-0.0219009 -0.0408474 0)
(-0.0147969 -0.0331841 0)
(-0.00886443 -0.0244832 0)
(-0.00424848 -0.0150079 0)
(-0.00101465 -0.00507398 0)
(-0.00115221 0.00645244 0)
(-0.00477807 0.0185826 0)
(-0.00988069 0.029737 0)
(-0.0163636 0.0396591 0)
(-0.0240524 0.0481501 0)
(-0.0327218 0.0550707 0)
(-0.0421259 0.0603381 0)
(-0.0520141 0.0639201 0)
(-0.0621413 0.0658284 0)
(-0.0722745 0.066111 0)
(-0.0821967 0.0648453 0)
(-0.0917095 0.0621315 0)
(-0.100634 0.0580872 0)
(-0.108813 0.0528423 0)
(-0.116107 0.046536 0)
(-0.122398 0.0393141 0)
(-0.127589 0.031327 0)
(-0.131598 0.022729 0)
(-0.134364 0.0136779 0)
(-0.135844 0.00433495 0)
(-0.136011 -0.005135 0)
(-0.134857 -0.014563 0)
(-0.132392 -0.0237762 0)
(-0.128645 -0.032598 0)
(-0.123665 -0.0408487 0)
(-0.117522 -0.0483474 0)
(-0.110308 -0.0549141 0)
(-0.10214 -0.0603729 0)
(-0.0931563 -0.0645566 0)
(-0.0835226 -0.0673117 0)
(-0.0734283 -0.0685049 0)
(-0.0630869 -0.0680302 0)
(-0.0527332 -0.0658162 0)
(-0.0426196 -0.0618344 0)
(-0.0330106 -0.0561066 0)
(-0.0241743 -0.0487116 0)
(-0.0163692 -0.0397908 0)
(-0.00982664 -0.0295501 0)
(-0.0047182 -0.0182591 0)
(-0.00112799 -0.00624358 0)
(-0.00125999 0.00773847 0)
(-0.00521917 0.0221029 0)
(-0.0107767 0.0351563 0)
(-0.0178184 0.0466471 0)
(-0.0261456 0.0563856 0)
(-0.0355062 0.0642448 0)
(-0.0456283 0.0701574 0)
(-0.056238 0.074109 0)
(-0.0670706 0.0761312 0)
(-0.0778774 0.076293 0)
(-0.0884299 0.0746936 0)
(-0.0985216 0.0714552 0)
(-0.107969 0.066717 0)
(-0.11661 0.0606303 0)
(-0.124308 0.0533545 0)
(-0.130944 0.0450548 0)
(-0.13642 0.0359004 0)
(-0.140657 0.0260635 0)
(-0.143595 0.0157193 0)
(-0.145189 0.00504618 0)
(-0.145414 -0.00577358 0)
(-0.144258 -0.0165534 0)
(-0.141729 -0.0271017 0)
(-0.137853 -0.0372223 0)
(-0.132675 -0.0467144 0)
(-0.12626 -0.0553746 0)
(-0.118698 -0.0629985 0)
(-0.110101 -0.0693846 0)
(-0.100609 -0.0743389 0)
(-0.0903897 -0.0776802 0)
(-0.079637 -0.0792479 0)
(-0.0685747 -0.0789093 0)
(-0.0574521 -0.0765683 0)
(-0.0465413 -0.0721748 0)
(-0.0361314 -0.0657332 0)
(-0.0265194 -0.0573098 0)
(-0.0179959 -0.0470391 0)
(-0.0108247 -0.0351266 0)
(-0.00520647 -0.0218474 0)
(-0.00124591 -0.00753809 0)
(-0.00136998 0.00913766 0)
(-0.00566865 0.0259238 0)
(-0.0116873 0.0410246 0)
(-0.0192927 0.0541944 0)
(-0.0282601 0.0652547 0)
(-0.0383094 0.0740949 0)
(-0.0491415 0.0806674 0)
(-0.0604588 0.0849806 0)
(-0.0719768 0.0870906 0)
(-0.0834317 0.0870923 0)
(-0.0945842 0.0851108 0)
(-0.105221 0.0812937 0)
(-0.115155 0.0758047 0)
(-0.124225 0.0688183 0)
(-0.132292 0.060516 0)
(-0.139243 0.051083 0)
(-0.14498 0.0407073 0)
(-0.149428 0.0295787 0)
(-0.152529 0.0178891 0)
(-0.154238 0.00583327 0)
(-0.154529 -0.00639055 0)
(-0.153389 -0.0185791 0)
(-0.150823 -0.0305234 0)
(-0.146852 -0.0420084 0)
(-0.141516 -0.0528125 0)
(-0.134873 -0.0627096 0)
(-0.127008 -0.0714704 0)
(-0.118029 -0.078866 0)
(-0.108072 -0.084673 0)
(-0.097304 -0.0886794 0)
(-0.0859235 -0.0906927 0)
(-0.074162 -0.0905485 0)
(-0.0622824 -0.0881206 0)
(-0.0505763 -0.0833313 0)
(-0.0393582 -0.0761613 0)
(-0.0289555 -0.0666594 0)
(-0.019693 -0.0549489 0)
(-0.0118702 -0.0412316 0)
(-0.0057197 -0.0257869 0)
(-0.00137006 -0.0089635 0)
(-0.00148328 0.0106527 0)
(-0.00613065 0.0300506 0)
(-0.0126199 0.0473473 0)
(-0.0207962 0.062304 0)
(-0.0304068 0.0747566 0)
(-0.0411416 0.0846145 0)
(-0.0526732 0.0918551 0)
(-0.0646794 0.0965151 0)
(-0.0768562 0.0986807 0)
(-0.0889253 0.0984776 0)
(-0.100638 0.0960613 0)
(-0.111776 0.0916089 0)
(-0.122151 0.0853116 0)
(-0.131603 0.0773696 0)
(-0.139997 0.0679871 0)
(-0.147222 0.0573706 0)
(-0.153189 0.0457266 0)
(-0.157824 0.0332621 0)
(-0.161073 0.0201844 0)
(-0.162893 0.00670309 0)
(-0.163258 -0.00696897 0)
(-0.162154 -0.0206136 0)
(-0.159581 -0.034006 0)
(-0.155554 -0.0469134 0)
(-0.150107 -0.0590945 0)
(-0.14329 -0.0703007 0)
(-0.135179 -0.0802771 0)
(-0.125875 -0.0887661 0)
(-0.115508 -0.0955124 0)
(-0.104242 -0.10027 0)
(-0.0922757 -0.102809 0)
(-0.0798471 -0.102928 0)
(-0.0672309 -0.100464 0)
(-0.0547375 -0.0953057 0)
(-0.042707 -0.0874027 0)
(-0.0314989 -0.0767795 0)
(-0.021475 -0.0635429 0)
(-0.0129737 -0.0478876 0)
(-0.00626395 -0.0300953 0)
(-0.00150201 -0.0105275 0)
(-0.00160095 0.0122875 0)
(-0.00660926 0.034491 0)
(-0.0135814 0.0541321 0)
(-0.0223379 0.0709807 0)
(-0.0325952 0.0848901 0)
(-0.0440104 0.095795 0)
(-0.0562266 0.103703 0)
(-0.0688963 0.108687 0)
(-0.0816962 0.110867 0)
(-0.0943347 0.110408 0)
(-0.106555 0.107499 0)
(-0.118137 0.102352 0)
(-0.128893 0.0951882 0)
(-0.138667 0.0862362 0)
(-0.14733 0.0757245 0)
(-0.15478 0.0638809 0)
(-0.160933 0.0509304 0)
(-0.165722 0.0370958 0)
(-0.169098 0.0225987 0)
(-0.171021 0.00766158 0)
(-0.171466 -0.00749036 0)
(-0.170417 -0.0226263 0)
(-0.167869 -0.0375075 0)
(-0.163833 -0.0518855 0)
(-0.15833 -0.0655009 0)
(-0.151404 -0.078083 0)
(-0.143118 -0.0893515 0)
(-0.133561 -0.0990188 0)
(-0.122855 -0.106795 0)
(-0.111157 -0.112397 0)
(-0.0986631 -0.115552 0)
(-0.0856134 -0.116016 0)
(-0.0722928 -0.113581 0)
(-0.059029 -0.108094 0)
(-0.046188 -0.0994655 0)
(-0.0341626 -0.0876882 0)
(-0.0233544 -0.0728458 0)
(-0.0141451 -0.0551203 0)
(-0.00684493 -0.0347935 0)
(-0.00164328 -0.0122394 0)
(-0.00172415 0.014047 0)
(-0.00710871 0.0392544 0)
(-0.014579 0.0613885 0)
(-0.0239267 0.0802295 0)
(-0.0348333 0.0956526 0)
(-0.0469207 0.107624 0)
(-0.0598004 0.116189 0)
(-0.073099 0.121461 0)
(-0.0864743 0.123605 0)
(-0.0996231 0.122829 0)
(-0.112283 0.119364 0)
(-0.124234 0.113459 0)
(-0.135293 0.10537 0)
(-0.145312 0.0953567 0)
(-0.154173 0.0836722 0)
(-0.16178 0.070566 0)
(-0.168063 0.0562812 0)
(-0.172962 0.041055 0)
(-0.176435 0.0251214 0)
(-0.178448 0.00871302 0)
(-0.178975 -0.00793506 0)
(-0.178001 -0.0245822 0)
(-0.175515 -0.0409787 0)
(-0.171521 -0.0568629 0)
(-0.16603 -0.0719591 0)
(-0.159071 -0.0859764 0)
(-0.150695 -0.0986091 0)
(-0.140976 -0.109539 0)
(-0.130022 -0.11844 0)
(-0.117977 -0.124986 0)
(-0.105033 -0.12886 0)
(-0.0914263 -0.129764 0)
(-0.0774494 -0.127441 0)
(-0.0634452 -0.121682 0)
(-0.0498045 -0.112352 0)
(-0.036955 -0.0994015 0)
(-0.0253414 -0.0828823 0)
(-0.015393 -0.0629576 0)
(-0.007468 -0.0399051 0)
(-0.00179532 -0.0141101 0)
(-0.0018541 0.0159371 0)
(-0.00763361 0.0443526 0)
(-0.01562 0.0691276 0)
(-0.025571 0.0900556 0)
(-0.0371282 0.107039 0)
(-0.0498748 0.120083 0)
(-0.0633883 0.129279 0)
(-0.077269 0.134791 0)
(-0.0911569 0.136836 0)
(-0.104739 0.135672 0)
(-0.117751 0.131579 0)
(-0.129976 0.124849 0)
(-0.14124 0.115777 0)
(-0.151407 0.104653 0)
(-0.160371 0.0917588 0)
(-0.168052 0.0773647 0)
(-0.174392 0.0617306 0)
(-0.179344 0.0451065 0)
(-0.182874 0.027736 0)
(-0.184954 0.00985915 0)
(-0.185563 -0.00828257 0)
(-0.184683 -0.0264422 0)
(-0.182299 -0.0443626 0)
(-0.178406 -0.0617722 0)
(-0.173002 -0.078382 0)
(-0.166104 -0.0938828 0)
(-0.157741 -0.107945 0)
(-0.14797 -0.12022 0)
(-0.13688 -0.130343 0)
(-0.1246 -0.137942 0)
(-0.111305 -0.142647 0)
(-0.0972297 -0.144105 0)
(-0.0826654 -0.141993 0)
(-0.0679679 -0.136042 0)
(-0.0535516 -0.126055 0)
(-0.0398799 -0.11193 0)
(-0.0274434 -0.0936761 0)
(-0.0167251 -0.0714288 0)
(-0.00813824 -0.0454557 0)
(-0.00195952 -0.0161516 0)
(-0.00199224 0.0179653 0)
(-0.0081892 0.0497995 0)
(-0.0167128 0.0773619 0)
(-0.0272799 0.100464 0)
(-0.0394864 0.119042 0)
(-0.0528722 0.133148 0)
(-0.0669784 0.142931 0)
(-0.081379 0.148616 0)
(-0.0956974 0.150483 0)
(-0.109614 0.148848 0)
(-0.122866 0.144047 0)
(-0.135245 0.13642 0)
(-0.14659 0.126306 0)
(-0.156783 0.114028 0)
(-0.165735 0.0998952 0)
(-0.173386 0.0841999 0)
(-0.179692 0.0672169 0)
(-0.184624 0.0492066 0)
(-0.188158 0.030419 0)
(-0.190276 0.0110981 0)
(-0.19096 -0.00851228 0)
(-0.190191 -0.0281632 0)
(-0.187952 -0.0475942 0)
(-0.184225 -0.0665282 0)
(-0.178998 -0.0846663 0)
(-0.172265 -0.101684 0)
(-0.164038 -0.117231 0)
(-0.15435 -0.130927 0)
(-0.143263 -0.142369 0)
(-0.130885 -0.151137 0)
(-0.117371 -0.156802 0)
(-0.102942 -0.158943 0)
(-0.0878855 -0.157167 0)
(-0.0725645 -0.151127 0)
(-0.0574147 -0.140554 0)
(-0.0429348 -0.125276 0)
(-0.0296649 -0.105247 0)
(-0.0181478 -0.0805628 0)
(-0.0088604 -0.051473 0)
(-0.00213728 -0.0183777 0)
(-0.00214029 0.0201406 0)
(-0.0087817 0.0556113 0)
(-0.0178669 0.0861054 0)
(-0.0290632 0.111456 0)
(-0.0419135 0.131645 0)
(-0.055909 0.146783 0)
(-0.0705525 0.157087 0)
(-0.0853911 0.162858 0)
(-0.100034 0.164448 0)
(-0.114159 0.162244 0)
(-0.127511 0.156645 0)
(-0.139894 0.148046 0)
(-0.151169 0.136831 0)
(-0.161238 0.12336 0)
(-0.170037 0.107971 0)
(-0.177529 0.0909764 0)
(-0.183691 0.0726632 0)
(-0.188511 0.0532996 0)
(-0.191983 0.0331385 0)
(-0.194097 0.0124234 0)
(-0.194842 -0.00860434 0)
(-0.194201 -0.0296984 0)
(-0.19215 -0.0506005 0)
(-0.188662 -0.0710327 0)
(-0.183709 -0.0906915 0)
(-0.177267 -0.109242 0)
(-0.16932 -0.126313 0)
(-0.159873 -0.141498 0)
(-0.148958 -0.154355 0)
(-0.136652 -0.164411 0)
(-0.123084 -0.171175 0)
(-0.108451 -0.174151 0)
(-0.0930301 -0.172861 0)
(-0.0771845 -0.166867 0)
(-0.0613667 -0.155809 0)
(-0.0461101 -0.13943 0)
(-0.0320067 -0.117608 0)
(-0.019666 -0.0903871 0)
(-0.00963895 -0.0579857 0)
(-0.00232994 -0.0208032 0)
(-0.00230035 0.0224738 0)
(-0.0094187 0.0618072 0)
(-0.0190935 0.095373 0)
(-0.0309319 0.123034 0)
(-0.0444144 0.144828 0)
(-0.0589778 0.160939 0)
(-0.0740837 0.171672 0)
(-0.0892538 0.177414 0)
(-0.104087 0.178607 0)
(-0.118262 0.175719 0)
(-0.131539 0.169221 0)
(-0.143744 0.15957 0)
(-0.154763 0.147197 0)
(-0.164527 0.132504 0)
(-0.173003 0.115854 0)
(-0.180181 0.0975784 0)
(-0.186064 0.0779752 0)
(-0.190664 0.0573161 0)
(-0.193991 0.0358523 0)
(-0.196049 0.0138221 0)
(-0.196834 -0.0085408 0)
(-0.196331 -0.0309988 0)
(-0.194513 -0.0533013 0)
(-0.191342 -0.0751758 0)
(-0.186774 -0.0963196 0)
(-0.180762 -0.116392 0)
(-0.17326 -0.135009 0)
(-0.164241 -0.151738 0)
(-0.1537 -0.166099 0)
(-0.141673 -0.177566 0)
(-0.128255 -0.185581 0)
(-0.113609 -0.189563 0)
(-0.0979906 -0.188937 0)
(-0.0817552 -0.18316 0)
(-0.0653655 -0.171757 0)
(-0.0493868 -0.154364 0)
(-0.0344649 -0.130764 0)
(-0.021283 -0.100926 0)
(-0.010478 -0.0650228 0)
(-0.00253884 -0.0234444 0)
(-0.002475 0.0249782 0)
(-0.0101094 0.0684098 0)
(-0.020406 0.105181 0)
(-0.032898 0.135194 0)
(-0.0469925 0.158558 0)
(-0.0620652 0.175551 0)
(-0.0775345 0.186585 0)
(-0.0928984 0.192154 0)
(-0.10775 0.192805 0)
(-0.121781 0.189099 0)
(-0.134769 0.18159 0)
(-0.146573 0.170802 0)
(-0.157114 0.15722 0)
(-0.166358 0.141283 0)
(-0.174309 0.123384 0)
(-0.180991 0.103868 0)
(-0.186438 0.0830399 0)
(-0.190687 0.0611715 0)
(-0.193769 0.0385071 0)
(-0.195705 0.0152742 0)
(-0.1965 -0.00830712 0)
(-0.196141 -0.0320141 0)
(-0.1946 -0.0556104 0)
(-0.191829 -0.0788359 0)
(-0.187766 -0.101396 0)
(-0.182337 -0.12295 0)
(-0.175469 -0.143108 0)
(-0.167093 -0.161415 0)
(-0.157161 -0.177358 0)
(-0.145662 -0.190358 0)
(-0.132642 -0.199784 0)
(-0.118222 -0.204966 0)
(-0.102622 -0.205215 0)
(-0.0861763 -0.199863 0)
(-0.0693499 -0.188301 0)
(-0.0527342 -0.170028 0)
(-0.0370295 -0.144705 0)
(-0.0229996 -0.112197 0)
(-0.0113812 -0.0726132 0)
(-0.00276527 -0.0263187 0)
(-0.00266744 0.02767 0)
(-0.0108652 0.0754455 0)
(-0.0218201 0.115545 0)
(-0.0349744 0.147925 0)
(-0.0496481 0.172788 0)
(-0.0651489 0.190532 0)
(-0.080851 0.201697 0)
(-0.0962327 0.206912 0)
(-0.11089 0.206845 0)
(-0.124532 0.202168 0)
(-0.136973 0.193526 0)
(-0.148111 0.181515 0)
(-0.157909 0.166678 0)
(-0.166382 0.149492 0)
(-0.173574 0.130374 0)
(-0.17955 0.109682 0)
(-0.184378 0.0877241 0)
(-0.188126 0.0647647 0)
(-0.190848 0.0410366 0)
(-0.192582 0.0167504 0)
(-0.193345 -0.00789383 0)
(-0.193132 -0.0326949 0)
(-0.19191 -0.057438 0)
(-0.189622 -0.0818828 0)
(-0.18619 -0.10575 0)
(-0.181515 -0.12871 0)
(-0.175487 -0.150369 0)
(-0.167997 -0.170263 0)
(-0.158946 -0.187847 0)
(-0.148267 -0.202493 0)
(-0.135944 -0.213497 0)
(-0.122043 -0.220089 0)
(-0.106732 -0.221457 0)
(-0.0903119 -0.216786 0)
(-0.0732331 -0.205304 0)
(-0.0561054 -0.186342 0)
(-0.0396819 -0.1594 0)
(-0.0248133 -0.12421 0)
(-0.0123513 -0.0807839 0)
(-0.0030104 -0.029445 0)
(-0.0028815 0.0305694 0)
(-0.0116995 0.0829452 0)
(-0.0233536 0.126482 0)
(-0.0371731 0.161209 0)
(-0.0523755 0.187453 0)
(-0.0681929 0.205763 0)
(-0.0839562 0.216842 0)
(-0.099131 0.221479 0)
(-0.113327 0.220488 0)
(-0.126286 0.214665 0)
(-0.137869 0.204757 0)
(-0.148025 0.191441 0)
(-0.156775 0.175313 0)
(-0.164186 0.15689 0)
(-0.170353 0.136609 0)
(-0.175384 0.114836 0)
(-0.179388 0.0918744 0)
(-0.182465 0.0679782 0)
(-0.184694 0.0433614 0)
(-0.186135 0.0182113 0)
(-0.186817 -0.0072985 0)
(-0.186741 -0.0329953 0)
(-0.185875 -0.0586934 0)
(-0.184155 -0.0841802 0)
(-0.181484 -0.109201 0)
(-0.177741 -0.133444 0)
(-0.17278 -0.156527 0)
(-0.166444 -0.17798 0)
(-0.158581 -0.197237 0)
(-0.149057 -0.213626 0)
(-0.137786 -0.226372 0)
(-0.124759 -0.2346 0)
(-0.110075 -0.237363 0)
(-0.0939802 -0.233677 0)
(-0.0768947 -0.222576 0)
(-0.0594318 -0.203184 0)
(-0.0423914 -0.174795 0)
(-0.0267162 -0.136961 0)
(-0.0133895 -0.089559 0)
(-0.00327512 -0.0328432 0)
(-0.00312173 0.0337009 0)
(-0.0126279 0.0909446 0)
(-0.0250251 0.138004 0)
(-0.0395025 0.175012 0)
(-0.0551567 0.202458 0)
(-0.071138 0.221086 0)
(-0.0867378 0.231804 0)
(-0.101421 0.235592 0)
(-0.114825 0.233436 0)
(-0.126744 0.226274 0)
(-0.137099 0.214964 0)
(-0.145909 0.200265 0)
(-0.153259 0.182828 0)
(-0.159281 0.163204 0)
(-0.164125 0.141845 0)
(-0.167949 0.119119 0)
(-0.170905 0.095318 0)
(-0.173124 0.0706781 0)
(-0.174715 0.0453882 0)
(-0.175758 0.0196061 0)
(-0.176299 -0.00652777 0)
(-0.176345 -0.0328761 0)
(-0.175866 -0.0592895 0)
(-0.174792 -0.0855915 0)
(-0.173015 -0.111561 0)
(-0.170387 -0.136916 0)
(-0.166729 -0.161293 0)
(-0.161839 -0.184232 0)
(-0.155502 -0.205156 0)
(-0.147514 -0.223358 0)
(-0.137704 -0.237997 0)
(-0.125972 -0.248094 0)
(-0.112328 -0.252557 0)
(-0.0969388 -0.250211 0)
(-0.0801684 -0.239862 0)
(-0.0626137 -0.220379 0)
(-0.0451094 -0.190797 0)
(-0.0286921 -0.150426 0)
(-0.0144943 -0.0989569 0)
(-0.00355976 -0.0365343 0)
(-0.0033932 0.0370952 0)
(-0.0136674 0.0994841 0)
(-0.0268521 0.150119 0)
(-0.0419619 0.189279 0)
(-0.0579522 0.21767 0)
(-0.0738881 0.236291 0)
(-0.0890306 0.246303 0)
(-0.102861 0.24892 0)
(-0.115068 0.245326 0)
(-0.125519 0.236617 0)
(-0.134215 0.22377 0)
(-0.14126 0.207625 0)
(-0.146817 0.188886 0)
(-0.151088 0.168129 0)
(-0.154287 0.145814 0)
(-0.156624 0.122301 0)
(-0.158291 0.0978653 0)
(-0.159456 0.0727162 0)
(-0.160255 0.0470113 0)
(-0.160789 0.0208724 0)
(-0.161119 -0.00559928 0)
(-0.161262 -0.032308 0)
(-0.161193 -0.0591477 0)
(-0.160838 -0.0859858 0)
(-0.160078 -0.112644 0)
(-0.158747 -0.138881 0)
(-0.156635 -0.164366 0)
(-0.153492 -0.18866 0)
(-0.149045 -0.211193 0)
(-0.143012 -0.231236 0)
(-0.135127 -0.247893 0)
(-0.125183 -0.260088 0)
(-0.113077 -0.266576 0)
(-0.0988646 -0.265974 0)
(-0.0828246 -0.256824 0)
(-0.0655068 -0.237687 0)
(-0.0477605 -0.207266 0)
(-0.0307116 -0.164557 0)
(-0.0156592 -0.108988 0)
(-0.00386352 -0.0405402 0)
(-0.00370112 0.0407891 0)
(-0.0148345 0.108607 0)
(-0.0288451 0.162822 0)
(-0.0445308 0.203919 0)
(-0.0606847 0.232903 0)
(-0.0762878 0.251097 0)
(-0.0905889 0.259983 0)
(-0.103113 0.261053 0)
(-0.11363 0.255718 0)
(-0.122105 0.245248 0)
(-0.128646 0.23074 0)
(-0.133456 0.213113 0)
(-0.136789 0.193113 0)
(-0.138925 0.171332 0)
(-0.140141 0.148226 0)
(-0.140699 0.124137 0)
(-0.140833 0.0993149 0)
(-0.140745 0.0739342 0)
(-0.140597 0.0481147 0)
(-0.140507 0.0219365 0)
(-0.140552 -0.0045433 0)
(-0.14076 -0.0312759 0)
(-0.141111 -0.0582043 0)
(-0.141534 -0.0852466 0)
(-0.141904 -0.112276 0)
(-0.14204 -0.139102 0)
(-0.141706 -0.165441 0)
(-0.140615 -0.190894 0)
(-0.138435 -0.21491 0)
(-0.134804 -0.236764 0)
(-0.129357 -0.25552 0)
(-0.121764 -0.270016 0)
(-0.111782 -0.278861 0)
(-0.0993258 -0.280449 0)
(-0.0845452 -0.273024 0)
(-0.0679023 -0.254777 0)
(-0.0502279 -0.223998 0)
(-0.0327235 -0.179266 0)
(-0.0168691 -0.119648 0)
(-0.00418347 -0.0448832 0)
(-0.00404982 0.0448274 0)
(-0.0161412 0.118358 0)
(-0.0309982 0.176083 0)
(-0.0471511 0.218791 0)
(-0.0632113 0.247888 0)
(-0.0780873 0.265127 0)
(-0.0910463 0.272383 0)
(-0.101697 0.27148 0)
(-0.109928 0.264084 0)
(-0.115838 0.251647 0)
(-0.119665 0.235384 0)
(-0.121727 0.216279 0)
(-0.12238 0.195108 0)
(-0.121983 0.172462 0)
(-0.120876 0.148781 0)
(-0.119372 0.124377 0)
(-0.11774 0.0994617 0)
(-0.116211 0.0741698 0)
(-0.114966 0.0485763 0)
(-0.114141 0.0227156 0)
(-0.113827 -0.00340351 0)
(-0.11406 -0.0297824 0)
(-0.114831 -0.0564171 0)
(-0.116073 -0.0832815 0)
(-0.117661 -0.110308 0)
(-0.119409 -0.137366 0)
(-0.121067 -0.164234 0)
(-0.122315 -0.190566 0)
(-0.122773 -0.21586 0)
(-0.122005 -0.239411 0)
(-0.119544 -0.260276 0)
(-0.114926 -0.27723 0)
(-0.107747 -0.288746 0)
(-0.0977433 -0.292997 0)
(-0.0848862 -0.287897 0)
(-0.0694947 -0.271205 0)
(-0.0523308 -0.240698 0)
(-0.034641 -0.194411 0)
(-0.0180934 -0.130914 0)
(-0.00451278 -0.0495849 0)
(-0.00444073 0.0492622 0)
(-0.0175867 0.128772 0)
(-0.0332707 0.189832 0)
(-0.0496961 0.233671 0)
(-0.0652803 0.262249 0)
(-0.078888 0.277877 0)
(-0.0898553 0.282915 0)
(-0.0979292 0.279575 0)
(-0.103168 0.269799 0)
(-0.105842 0.25522 0)
(-0.106343 0.237157 0)
(-0.105119 0.216641 0)
(-0.10263 0.194453 0)
(-0.0993124 0.171166 0)
(-0.095566 0.147184 0)
(-0.0917416 0.122777 0)
(-0.0881387 0.0981091 0)
(-0.0850049 0.0732663 0)
(-0.082537 0.0482752 0)
(-0.080882 0.0231212 0)
(-0.0801383 -0.00223669 0)
(-0.080355 -0.0278511 0)
(-0.0815302 -0.0537726 0)
(-0.0836076 -0.0800336 0)
(-0.0864713 -0.10663 0)
(-0.0899397 -0.1335 0)
(-0.0937583 -0.160493 0)
(-0.0975936 -0.18734 0)
(-0.10103 -0.213606 0)
(-0.103571 -0.23864 0)
(-0.104655 -0.261524 0)
(-0.103681 -0.281007 0)
(-0.100069 -0.295459 0)
(-0.0933375 -0.302842 0)
(-0.083225 -0.300726 0)
(-0.0698355 -0.28638 0)
(-0.0537872 -0.256953 0)
(-0.0363178 -0.209774 0)
(-0.0192743 -0.142728 0)
(-0.00483755 -0.0546639 0)
(-0.00486821 0.0541523 0)
(-0.0191415 0.139866 0)