/*--------------------------------*- C++ -*----------------------------------*\
| =========                 |                                                 |
| \\      /  F ield         | OpenFOAM: The Open Source CFD Toolbox           |
|  \\    /   O peration     | Version:  4.1                                   |
|   \\  /    A nd           | Web:      www.OpenFOAM.org                      |
|    \\/     M anipulation  |                                                 |
\*---------------------------------------------------------------------------*/
FoamFile
{
    version     2.0;
    format      ascii;
    class       volVectorField;
    location    "10.5";
    object      U;
}
// * * * * * * * * * * * * * * * * * * * * * * * * * * * * * * * * * * * * * //

dimensions      [0 1 -1 0 0 0 0];

internalField   nonuniform List<vector> 
400
(
(0.000200298 -0.000197441 0)
(-9.11759e-05 8.46674e-05 0)
(-0.00154312 0.000332948 0)
(-0.00374831 0.000515926 0)
(-0.00647064 0.000605172 0)
(-0.00937049 0.000635139 0)
(-0.012222 0.000610736 0)
(-0.0147809 0.000536148 0)
(-0.0168187 0.000405203 0)
(-0.0180984 0.000216132 0)
(-0.0184129 -2.43795e-05 0)
(-0.0176252 -0.000293989 0)
(-0.0157205 -0.00055475 0)
(-0.0128562 -0.000755668 0)
(-0.00936667 -0.000847326 0)
(-0.00576093 -0.000790102 0)
(-0.0025889 -0.000586395 0)
(-0.000406025 -0.000258099 0)
(0.000557685 7.30605e-05 0)
(0.000316471 0.000301561 0)
(-8.92692e-05 8.18255e-05 0)
(-0.00206286 0.00193608 0)
(-0.00648885 0.00366172 0)
(-0.0124603 0.00489659 0)
(-0.0194698 0.00552662 0)
(-0.0267814 0.00564291 0)
(-0.0338361 0.00528423 0)
(-0.0400427 0.00447019 0)
(-0.0448544 0.0031997 0)
(-0.047746 0.00150411 0)
(-0.0482929 -0.000519055 0)
(-0.0462483 -0.00267905 0)
(-0.0416363 -0.00469511 0)
(-0.0348332 -0.00622771 0)
(-0.0265688 -0.00695411 0)
(-0.017914 -0.00664943 0)
(-0.0100291 -0.00531726 0)
(-0.00408837 -0.00319022 0)
(-0.000618872 -0.000940063 0)
(0.00017823 0.000590177 0)
(-0.000420605 0.0016724 0)
(-0.00437416 0.00649224 0)
(-0.0118186 0.0105595 0)
(-0.021258 0.0133501 0)
(-0.0319699 0.0147146 0)
(-0.0429368 0.0147933 0)
(-0.0533736 0.0136635 0)
(-0.0624528 0.011373 0)
(-0.0694187 0.00795885 0)
(-0.0735673 0.00354281 0)
(-0.0743444 -0.00160129 0)
(-0.0714364 -0.00700268 0)
(-0.0648762 -0.0120053 0)
(-0.0551426 -0.0158389 0)
(-0.0431711 -0.0177715 0)
(-0.030369 -0.0172943 0)
(-0.0183085 -0.0143837 0)
(-0.00867974 -0.00956446 0)
(-0.00234473 -0.00420669 0)
(-1.39654e-05 -7.7285e-06 0)
(-0.000746202 0.0044486 0)
(-0.00664648 0.0134574 0)
(-0.0169859 0.020445 0)
(-0.0296183 0.0250005 0)
(-0.0436167 0.0270813 0)
(-0.0577423 0.0269207 0)
(-0.0710682 0.0246527 0)
(-0.082622 0.0203648 0)
(-0.0915244 0.0141501 0)
(-0.096957 0.00624442 0)
(-0.0982647 -0.00287379 0)
(-0.0950415 -0.0124195 0)
(-0.0872435 -0.021314 0)
(-0.0753147 -0.0282841 0)
(-0.0602359 -0.032084 0)
(-0.0436185 -0.0317937 0)
(-0.0273882 -0.0272474 0)
(-0.0138256 -0.0192098 0)
(-0.00427483 -0.00977005 0)
(-0.000209262 -0.00151761 0)
(-0.00102365 0.00837959 0)
(-0.00867903 0.0227951 0)
(-0.0216578 0.0332616 0)
(-0.0371777 0.0397517 0)
(-0.0541185 0.0424992 0)
(-0.071063 0.0419024 0)
(-0.087005 0.0381857 0)
(-0.100897 0.0314881 0)
(-0.111797 0.0219627 0)
(-0.118808 0.00995408 0)
(-0.121167 -0.00386616 0)
(-0.118322 -0.0184098 0)
(-0.110042 -0.0321656 0)
(-0.096586 -0.0432999 0)
(-0.0788208 -0.0499205 0)
(-0.0584474 -0.0504923 0)
(-0.037731 -0.0444765 0)
(-0.0196988 -0.0327208 0)
(-0.00640708 -0.018033 0)
(-0.000389614 -0.00403301 0)
(-0.00125777 0.0132782 0)
(-0.0104108 0.0341607 0)
(-0.0256667 0.0485887 0)
(-0.0436845 0.0571493 0)
(-0.0631801 0.0605226 0)
(-0.0826052 0.0593602 0)
(-0.100928 0.0540208 0)
(-0.117087 0.0447039 0)
(-0.130128 0.0316077 0)
(-0.139106 0.0151461 0)
(-0.143148 -0.00387614 0)
(-0.141502 -0.0241336 0)
(-0.133648 -0.043725 0)
(-0.119505 -0.0602304 0)
(-0.099635 -0.0709673 0)
(-0.075652 -0.073502 0)
(-0.0500842 -0.0665412 0)
(-0.0268484 -0.0506988 0)
(-0.00901104 -0.0294389 0)
(-0.000605367 -0.00767006 0)
(-0.00143821 0.0189855 0)
(-0.0117726 0.047232 0)
(-0.0288482 0.0660435 0)
(-0.0488744 0.0768099 0)
(-0.070442 0.0808113 0)
(-0.0919224 0.0790422 0)
(-0.112307 0.0720446 0)
(-0.130576 0.0600865 0)
(-0.145816 0.0433848 0)
(-0.157076 0.0223597 0)
(-0.163392 -0.00214522 0)
(-0.1638 -0.0286811 0)
(-0.157428 -0.0550567 0)
(-0.143718 -0.0782989 0)
(-0.122703 -0.09482 0)
(-0.0956366 -0.100957 0)
(-0.0650827 -0.0941111 0)
(-0.0358702 -0.0740996 0)
(-0.0124084 -0.0448035 0)
(-0.00090577 -0.0127546 0)
(-0.00155974 0.0252821 0)
(-0.0127094 0.061566 0)
(-0.0310572 0.0850859 0)
(-0.0524841 0.0981705 0)
(-0.0754943 0.102832 0)
(-0.0984301 0.100495 0)
(-0.12035 0.0919369 0)
(-0.140332 0.0775066 0)
(-0.157565 0.0574117 0)
(-0.171155 0.0320069 0)
(-0.180112 0.00205822 0)
(-0.183307 -0.0310172 0)
(-0.179526 -0.0649094 0)
(-0.167652 -0.0962261 0)
(-0.146983 -0.120465 0)
(-0.11804 -0.132444 0)
(-0.0829752 -0.127566 0)
(-0.0472812 -0.103931 0)
(-0.0169622 -0.0651881 0)
(-0.00135775 -0.019782 0)
(-0.00161957 0.0319426 0)
(-0.0131877 0.0766857 0)
(-0.0321892 0.105112 0)
(-0.0542922 0.120568 0)
(-0.0779448 0.125912 0)
(-0.10151 0.123077 0)
(-0.124153 0.113141 0)
(-0.145106 0.0965514 0)
(-0.163724 0.0734938 0)
(-0.179261 0.0441956 0)
(-0.190804 0.00923129 0)
(-0.197185 -0.0301897 0)
(-0.196945 -0.0718755 0)
(-0.188444 -0.11228 0)
(-0.17012 -0.146168 0)
(-0.141363 -0.166731 0)
(-0.103272 -0.166668 0)
(-0.0613202 -0.141043 0)
(-0.0230341 -0.0918727 0)
(-0.00204329 -0.0294684 0)
(-0.00162662 0.0387179 0)
(-0.0132368 0.0920534 0)
(-0.0322495 0.125412 0)
(-0.0542147 0.143177 0)
(-0.0775446 0.149154 0)
(-0.100676 0.145861 0)
(-0.122915 0.134747 0)
(-0.143708 0.116396 0)
(-0.162644 0.0909785 0)
(-0.179221 0.0585611 0)
(-0.192741 0.0194421 0)
(-0.202161 -0.0255422 0)
(-0.205983 -0.0745888 0)
(-0.202211 -0.124384 0)
(-0.188471 -0.16939 0)
(-0.162756 -0.201418 0)
(-0.124405 -0.21001 0)
(-0.0777026 -0.185623 0)
(-0.0309518 -0.126127 0)
(-0.00307606 -0.0427451 0)
(-0.00161816 0.0454407 0)
(-0.0129937 0.107213 0)
(-0.0314207 0.145297 0)
(-0.0523965 0.165103 0)
(-0.0743097 0.171505 0)
(-0.0957405 0.167679 0)
(-0.11618 0.155525 0)
(-0.135345 0.135811 0)
(-0.153121 0.108725 0)
(-0.169341 0.0741789 0)
(-0.183643 0.0321559 0)
(-0.195298 -0.0169956 0)
(-0.203019 -0.0721073 0)
(-0.20475 -0.130543 0)
(-0.197588 -0.187109 0)
(-0.178143 -0.23295 0)
(-0.143507 -0.254601 0)
(-0.0952889 -0.236576 0)
(-0.0409077 -0.168855 0)
(-0.00461398 -0.060769 0)
(-0.00166387 0.0519835 0)
(-0.012771 0.121727 0)
(-0.0301731 0.164037 0)
(-0.0493472 0.18533 0)
(-0.0686713 0.191725 0)
(-0.0869914 0.18712 0)
(-0.104042 0.173952 0)
(-0.119883 0.153218 0)
(-0.134745 0.12517 0)
(-0.148852 0.0895981 0)
(-0.16227 0.0461898 0)
(-0.174721 -0.00522995 0)
(-0.185372 -0.0642794 0)
(-0.192467 -0.129385 0)
(-0.193061 -0.196433 0)
(-0.182773 -0.257044 0)
(-0.156484 -0.295773 0)
(-0.111766 -0.290854 0)
(-0.0527565 -0.219981 0)
(-0.00686795 -0.0848535 0)
(-0.00192542 0.0586708 0)
(-0.0131157 0.135662 0)
(-0.0292725 0.181254 0)
(-0.045908 0.202994 0)
(-0.0614165 0.208589 0)
(-0.0751221 0.202697 0)
(-0.0870868 0.188369 0)
(-0.0978062 0.166846 0)
(-0.107883 0.138478 0)
(-0.117958 0.102977 0)
(-0.128545 0.059791 0)
(-0.139887 0.00827156 0)
(-0.151769 -0.0519945 0)
(-0.163056 -0.1207 0)
(-0.171359 -0.195426 0)
(-0.172013 -0.2696 0)
(-0.158447 -0.327714 0)
(-0.123477 -0.343129 0)
(-0.0656473 -0.277696 0)
(-0.0100854 -0.11634 0)
(-0.00265352 0.0657716 0)
(-0.0150163 0.14891 0)
(-0.0300305 0.196309 0)
(-0.0434548 0.216917 0)
(-0.0537666 0.220564 0)
(-0.0611793 0.212676 0)
(-0.066208 0.19694 0)
(-0.0699124 0.174798 0)
(-0.0732758 0.146697 0)
(-0.077345 0.112296 0)
(-0.0830463 0.0708781 0)
(-0.0911226 0.0214425 0)
(-0.102037 -0.0370813 0)
(-0.115471 -0.105598 0)
(-0.13013 -0.183664 0)
(-0.141924 -0.267658 0)
(-0.144257 -0.344447 0)
(-0.125478 -0.385966 0)
(-0.0775164 -0.337582 0)
(-0.0144709 -0.156108 0)
(-0.00439643 0.075563 0)
(-0.0197649 0.163183 0)
(-0.0337218 0.209732 0)
(-0.0430161 0.226451 0)
(-0.0463399 0.226298 0)
(-0.0454473 0.215325 0)
(-0.0414431 0.197763 0)
(-0.0361019 0.175096 0)
(-0.0307707 0.147782 0)
(-0.0268632 0.115413 0)
(-0.025644 0.0771648 0)
(-0.0282767 0.0318258 0)
(-0.0358564 -0.0220939 0)
(-0.0489099 -0.0864119 0)
(-0.0675908 -0.162499 0)
(-0.0891125 -0.250239 0)
(-0.108693 -0.341176 0)
(-0.111593 -0.410873 0)
(-0.0843752 -0.392262 0)
(-0.0199769 -0.204148 0)
(-0.00800934 0.088276 0)
(-0.0299674 0.177578 0)
(-0.042316 0.219498 0)
(-0.0454397 0.228905 0)
(-0.0385514 0.222945 0)
(-0.0262368 0.207957 0)
(-0.0103104 0.188402 0)
(0.00658419 0.165539 0)
(0.0228187 0.139685 0)
(0.0367 0.110327 0)
(0.0467443 0.0765712 0)
(0.0514931 0.0371492 0)
(0.0493518 -0.009579 0)
(0.0390718 -0.0658757 0)
(0.0190025 -0.134363 0)
(-0.00975958 -0.218101 0)
(-0.0460015 -0.314728 0)
(-0.0741851 -0.408892 0)
(-0.0795712 -0.430433 0)
(-0.0257319 -0.257238 0)
(-0.0146235 0.114332 0)
(-0.0452396 0.197682 0)
(-0.0516498 0.22683 0)
(-0.0433068 0.222481 0)
(-0.0207079 0.207538 0)
(0.00737516 0.187415 0)
(0.0386158 0.165888 0)
(0.0695741 0.143474 0)
(0.0985638 0.120041 0)
(0.123803 0.0948793 0)
(0.143775 0.0670305 0)
(0.156905 0.0352802 0)
(0.161319 -0.00193946 0)
(0.155271 -0.0468558 0)
(0.135894 -0.102602 0)
(0.10259 -0.174205 0)
(0.0519309 -0.265273 0)
(-0.0025719 -0.373539 0)
(-0.0517177 -0.439137 0)
(-0.0284987 -0.309955 0)
(-0.0256208 0.141881 0)
(-0.0656035 0.209188 0)
(-0.0479973 0.216771 0)
(-0.0145915 0.195549 0)
(0.0341204 0.171876 0)
(0.0840016 0.148477 0)
(0.13371 0.127085 0)
(0.179878 0.107205 0)
(0.221453 0.0880904 0)
(0.257088 0.0688626 0)
(0.285621 0.0485685 0)
(0.305682 0.0261835 0)
(0.31546 0.000421169 0)
(0.312985 -0.0304545 0)
(0.294756 -0.0692725 0)
(0.258701 -0.121056 0)
(0.197047 -0.193228 0)
(0.118737 -0.296424 0)
(0.0177989 -0.395466 0)
(-0.0171719 -0.33898 0)
(-0.0187471 0.214585 0)
(-0.0197947 0.215333 0)
(0.0566328 0.181574 0)
(0.128687 0.140377 0)
(0.205569 0.110509 0)
(0.273766 0.0882532 0)
(0.335355 0.0710026 0)
(0.388925 0.0570545 0)
(0.434825 0.0449936 0)
(0.472795 0.0338614 0)
(0.502446 0.02284 0)
(0.522992 0.0112243 0)
(0.533136 -0.00181692 0)
(0.531129 -0.0172683 0)
(0.513817 -0.0371321 0)
(0.478222 -0.0648259 0)
(0.414633 -0.108584 0)
(0.323966 -0.18672 0)
(0.173187 -0.296556 0)
(0.0429793 -0.335039 0)
(0.211331 0.129537 0)
(0.297276 0.100934 0)
(0.451175 0.0674642 0)
(0.543293 0.0443151 0)
(0.618072 0.0290859 0)
(0.673977 0.0198493 0)
(0.717913 0.0138468 0)
(0.752513 0.00980157 0)
(0.779752 0.00682536 0)
(0.800629 0.00442483 0)
(0.815581 0.00227035 0)
(0.82456 0.000142603 0)
(0.827073 -0.00218066 0)
(0.822123 -0.00488819 0)
(0.807838 -0.00852655 0)
(0.78124 -0.0136934 0)
(0.734301 -0.0229 0)
(0.658597 -0.0407272 0)
(0.498163 -0.074367 0)
(0.288347 -0.136214 0)
)
;

boundaryField
{
    movingWall
    {
        type            fixedValue;
        value           uniform (1 0 0);
    }
    fixedWalls
    {
        type            noSlip;
    }
    frontAndBack
    {
        type            empty;
    }
}


// ************************************************************************* //
