/*--------------------------------*- C++ -*----------------------------------*\
| =========                 |                                                 |
| \\      /  F ield         | OpenFOAM: The Open Source CFD Toolbox           |
|  \\    /   O peration     | Version:  4.1                                   |
|   \\  /    A nd           | Web:      www.OpenFOAM.org                      |
|    \\/     M anipulation  |                                                 |
\*---------------------------------------------------------------------------*/
FoamFile
{
    version     2.0;
    format      ascii;
    class       volVectorField;
    location    "0.0294";
    object      U;
}
// * * * * * * * * * * * * * * * * * * * * * * * * * * * * * * * * * * * * * //

dimensions      [0 1 -1 0 0 0 0];

internalField   nonuniform List<vector> 
441
(
(0.00327902 -0.00462382 0)
(0.00806481 -0.00273206 0)
(-0.000683099 -2.25708e-165 0)
(0.00157719 -2.47171e-266 0)
(-0.00963719 -0.00630931 0)
(-0.00157719 -2.5606e-232 0)
(-1.08366e-202 -3.92689e-203 0)
(-9.81537e-204 -4.86814e-228 0)
(-1.35735e-212 -2.01488e-213 0)
(-0.00478249 7.2791e-266 0)
(-0.0566549 0.0191318 0)
(-0.0721505 0.0103681 0)
(-0.0829114 0.00508967 0)
(-0.0759326 0.00102476 0)
(-0.0665739 -0.000574996 0)
(-0.0495853 -0.00185636 0)
(-0.0339584 -0.00161094 0)
(-0.0176955 -0.00168036 0)
(-0.00551512 -0.000174318 0)
(0.000118661 0.000436751 0)
(0.00340933 0.00216836 0)
(0.0029548 -0.00650737 0)
(-0.00342614 0.00669784 0)
(-0.0283509 0.00758779 0)
(-0.0561491 0.0110244 0)
(-0.0953329 0.00873922 0)
(-0.129079 -0.00508409 0)
(-0.158906 -0.000641979 0)
(-0.185798 0.00106355 0)
(-0.208468 0.00976103 0)
(-0.231584 0.050116 0)
(-0.247466 0.0466047 0)
(-0.242832 0.0161599 0)
(-0.234674 -0.00169735 0)
(-0.208264 -0.0179309 0)
(-0.17766 -0.0257969 0)
(-0.136129 -0.0317572 0)
(-0.0965402 -0.0300698 0)
(-0.0569809 -0.0278485 0)
(-0.0261184 -0.0172415 0)
(-0.00754329 -0.0100925 0)
(0.00328685 0.00155789 0)
(0.00610134 -0.00475408 0)
(-0.00658754 0.0281805 0)
(-0.0506157 0.0513069 0)
(-0.105868 0.0649907 0)
(-0.169277 0.0656378 0)
(-0.23263 0.0601504 0)
(-0.296757 0.0546536 0)
(-0.344028 0.0478882 0)
(-0.389589 0.0439611 0)
(-0.407867 0.0427173 0)
(-0.399867 0.0311676 0)
(-0.385415 -0.0014202 0)
(-0.3617 -0.0289027 0)
(-0.320463 -0.0558272 0)
(-0.272121 -0.071886 0)
(-0.210522 -0.0831883 0)
(-0.151108 -0.0797259 0)
(-0.0913342 -0.0724976 0)
(-0.0445273 -0.0486001 0)
(-0.0135014 -0.0293045 0)
(0.0044212 -0.00157362 0)
(0.00593273 -0.0061905 0)
(-0.0125288 0.0649658 0)
(-0.0801423 0.106997 0)
(-0.155602 0.131649 0)
(-0.240644 0.135795 0)
(-0.322174 0.124757 0)
(-0.398228 0.11194 0)
(-0.45968 0.0945417 0)
(-0.507383 0.0752704 0)
(-0.531843 0.0581291 0)
(-0.531933 0.0238865 0)
(-0.512237 -0.0229615 0)
(-0.479134 -0.0667705 0)
(-0.424108 -0.108455 0)
(-0.359918 -0.135547 0)
(-0.279207 -0.153995 0)
(-0.201203 -0.14875 0)
(-0.121709 -0.135857 0)
(-0.059899 -0.0943467 0)
(-0.0169255 -0.0603118 0)
(0.006355 -0.00718547 0)
(6.02924e-165 0.00148318 0)
(-0.0176987 0.113859 0)
(-0.110428 0.193654 0)
(-0.200474 0.224314 0)
(-0.304205 0.231345 0)
(-0.400267 0.216279 0)
(-0.491588 0.191225 0)
(-0.563796 0.15628 0)
(-0.620557 0.115668 0)
(-0.649298 0.0678844 0)
(-0.652543 0.0119497 0)
(-0.632089 -0.0539693 0)
(-0.592857 -0.116347 0)
(-0.527258 -0.175245 0)
(-0.44908 -0.215779 0)
(-0.348884 -0.242506 0)
(-0.252094 -0.23586 0)
(-0.149502 -0.214642 0)
(-0.0726671 -0.151835 0)
(-0.0147411 -0.096242 0)
(0.0126775 -0.0112576 0)
(-4.99546e-266 0.00486058 0)
(-0.0719692 0.179589 0)
(-0.150278 0.288126 0)
(-0.254924 0.32709 0)
(-0.363674 0.335561 0)
(-0.471397 0.313167 0)
(-0.570563 0.276013 0)
(-0.653425 0.22377 0)
(-0.717738 0.161429 0)
(-0.755954 0.0894398 0)
(-0.768842 0.00686701 0)
(-0.752121 -0.0835164 0)
(-0.712284 -0.171407 0)
(-0.638942 -0.253519 0)
(-0.548459 -0.313466 0)
(-0.428052 -0.352927 0)
(-0.310078 -0.347156 0)
(-0.180846 -0.317919 0)
(-0.0858046 -0.227432 0)
(-0.00943457 -0.148565 0)
(0.015815 -0.0083163 0)
(-0.0194423 0.0766398 0)
(-0.0982545 0.260861 0)
(-0.187085 0.377118 0)
(-0.29941 0.436173 0)
(-0.419801 0.447299 0)
(-0.538301 0.422061 0)
(-0.649639 0.372749 0)
(-0.744253 0.302812 0)
(-0.820817 0.218118 0)
(-0.870787 0.118845 0)
(-0.895013 0.00856319 0)
(-0.886187 -0.110728 0)
(-0.849789 -0.228636 0)
(-0.772184 -0.339671 0)
(-0.671488 -0.425258 0)
(-0.528939 -0.482116 0)
(-0.387831 -0.480921 0)
(-0.222501 -0.440689 0)
(-0.109774 -0.320384 0)
(0.00287979 -0.199387 0)
(5.43415e-266 -0.00395376 0)
(-0.0138611 0.124835 0)
(-0.0911576 0.34829 0)
(-0.202207 0.489983 0)
(-0.329872 0.560662 0)
(-0.464883 0.57491 0)
(-0.597047 0.543487 0)
(-0.721158 0.482442 0)
(-0.83024 0.395015 0)
(-0.921474 0.288407 0)
(-0.98797 0.163221 0)
(-1.02881 0.0225852 0)
(-1.034 -0.129652 0)
(-1.00746 -0.285045 0)
(-0.931137 -0.433585 0)
(-0.823328 -0.556039 0)
(-0.659237 -0.63975 0)
(-0.489952 -0.651959 0)
(-0.284622 -0.601096 0)
(-0.141451 -0.44865 0)
(-0.00137182 -0.266821 0)
(1.94376e-24 -1.56891e-24 0)
(-0.0119575 0.178674 0)
(-0.0940462 0.447518 0)
(-0.220407 0.61461 0)
(-0.361773 0.697337 0)
(-0.511892 0.713578 0)
(-0.657936 0.677147 0)
(-0.796694 0.605419 0)
(-0.921822 0.502354 0)
(-1.03075 0.37582 0)
(-1.11734 0.225774 0)
(-1.17924 0.0551391 0)
(-1.20496 -0.132453 0)
(-1.1954 -0.330287 0)
(-1.12779 -0.524673 0)
(-1.01845 -0.695127 0)
(-0.834019 -0.817545 0)
(-0.633519 -0.852076 0)
(-0.376275 -0.792843 0)
(-0.191821 -0.597301 0)
(-0.00349447 -0.346655 0)
(7.98342e-77 -4.85939e-25 0)
(-0.0105188 0.231651 0)
(-0.0948493 0.558399 0)
(-0.233813 0.758707 0)
(-0.387542 0.852948 0)
(-0.551485 0.871848 0)
(-0.711143 0.828585 0)
(-0.863991 0.746901 0)
(-1.00597 0.628986 0)
(-1.13382 0.484296 0)
(-1.24376 0.311245 0)
(-1.33135 0.110447 0)
(-1.3846 -0.114527 0)
(-1.4006 -0.361892 0)
(-1.35154 -0.612753 0)
(-1.24913 -0.84923 0)
(-1.0498 -1.02926 0)
(-0.81595 -1.1082 0)
(-0.497497 -1.0507 0)
(-0.256382 -0.816802 0)
(-0.00495835 -0.470858 0)
(2.22474e-164 -1.99585e-77 0)
(-0.0112739 0.281041 0)
(-0.102358 0.669168 0)
(-0.255127 0.905363 0)
(-0.421393 1.01306 0)
(-0.597765 1.03588 0)
(-0.76934 0.988028 0)
(-0.933839 0.899522 0)
(-1.09078 0.771096 0)
(-1.23582 0.61345 0)
(-1.36931 0.422709 0)
(-1.48404 0.196517 0)
(-1.5703 -0.063515 0)
(-1.61949 -0.36182 0)
(-1.60115 -0.676872 0)
(-1.51828 -0.99408 0)
(-1.31654 -1.25334 0)
(-1.05563 -1.39975 0)
(-0.673695 -1.35809 0)
(-0.363714 -1.07988 0)
(-0.0618783 -0.612852 0)
(1.4018e-265 0.0107544 0)
(-0.0130289 0.346412 0)
(-0.109847 0.804456 0)
(-0.274217 1.07947 0)
(-0.449879 1.19651 0)
(-0.634355 1.22123 0)
(-0.813387 1.16489 0)
(-0.984198 1.06923 0)
(-1.151 0.930756 0)
(-1.30783 0.763107 0)
(-1.46057 0.558855 0)
(-1.5995 0.311299 0)
(-1.71909 0.0198069 0)
(-1.80597 -0.331199 0)
(-1.82867 -0.716298 0)
(-1.78063 -1.13375 0)
(-1.5951 -1.49761 0)
(-1.32011 -1.75058 0)
(-0.873198 -1.75401 0)
(-0.466423 -1.42407 0)
(-0.0618515 -0.850619 0)
(0.0430174 -0.059125 0)
(-0.0178427 0.399684 0)
(-0.127054 0.927462 0)
(-0.308907 1.2426 0)
(-0.494804 1.37 0)
(-0.682552 1.39767 0)
(-0.862458 1.3354 0)
(-1.02877 1.23623 0)
(-1.19468 1.09321 0)
(-1.34993 0.92267 0)
(-1.51021 0.713736 0)
(-1.66093 0.455363 0)
(-1.80702 0.142997 0)
(-1.92757 -0.250569 0)
(-1.99984 -0.701988 0)
(-2.00186 -1.22381 0)
(-1.86149 -1.71569 0)
(-1.60563 -2.11622 0)
(-1.10097 -2.21866 0)
(-0.615626 -1.88442 0)
(0.0330786 -1.12755 0)
(2.0366e-231 -0.0107544 0)
(-0.0241934 0.494211 0)
(-0.144608 1.09863 0)
(-0.339367 1.45107 0)
(-0.528568 1.57128 0)
(-0.709787 1.59198 0)
(-0.879262 1.51138 0)
(-1.02741 1.40325 0)
(-1.17679 1.25176 0)
(-1.31235 1.07903 0)
(-1.45996 0.869363 0)
(-1.6014 0.607305 0)
(-1.75377 0.285653 0)
(-1.89357 -0.139749 0)
(-2.01088 -0.643474 0)
(-2.07699 -1.27322 0)
(-2.01936 -1.8988 0)
(-1.84102 -2.51245 0)
(-1.36454 -2.76039 0)
(-0.831057 -2.5543 0)
(-0.00397364 -1.49798 0)
(5.16656e-202 4.23555e-184 0)
(-0.0417747 0.561246 0)
(-0.189902 1.23652 0)
(-0.406838 1.62246 0)
(-0.597649 1.73473 0)
(-0.75528 1.74646 0)
(-0.8964 1.6493 0)
(-0.999544 1.5331 0)
(-1.1071 1.37645 0)
(-1.19236 1.20574 0)
(-1.29846 1.00274 0)
(-1.39734 0.749517 0)
(-1.52853 0.436564 0)
(-1.65736 0.00829417 0)
(-1.81101 -0.515908 0)
(-1.93518 -1.20948 0)
(-2.00924 -1.94988 0)
(-1.95751 -2.75822 0)
(-1.62938 -3.23781 0)
(-1.11001 -3.22454 0)
(-0.00871353 -1.9851 0)
(1.69422e-183 2.21827e-184 0)
(-0.0614311 0.733533 0)
(-0.233735 1.46798 0)
(-0.456708 1.86793 0)
(-0.630169 1.92091 0)
(-0.742154 1.89752 0)
(-0.83124 1.75604 0)
(-0.86495 1.61778 0)
(-0.903605 1.44486 0)
(-0.910236 1.27155 0)
(-0.942427 1.07485 0)
(-0.964637 0.836236 0)
(-1.03445 0.546676 0)
(-1.11431 0.13955 0)
(-1.2618 -0.363733 0)
(-1.42624 -1.07975 0)
(-1.62712 -1.87432 0)
(-1.78289 -2.89975 0)
(-1.73488 -3.61621 0)
(-1.47796 -4.19543 0)
(-0.442678 -2.65197 0)
(4.18183e-254 -4.23555e-184 0)
(-0.126736 0.841895 0)
(-0.366472 1.61848 0)
(-0.585247 2.01316 0)
(-0.717606 2.01013 0)
(-0.722797 1.9463 0)
(-0.713361 1.76683 0)
(-0.622021 1.60602 0)
(-0.550503 1.42035 0)
(-0.437403 1.24555 0)
(-0.364532 1.05881 0)
(-0.277337 0.842694 0)
(-0.261274 0.590902 0)
(-0.255458 0.237832 0)
(-0.378495 -0.195937 0)
(-0.53194 -0.837394 0)
(-0.895164 -1.58278 0)
(-1.22364 -2.62627 0)
(-1.78403 -3.54292 0)
(-1.80419 -4.43541 0)
(-2.02075 -3.53716 0)
(-2.43617e-264 -0.206963 0)
(-0.180307 1.24756 0)
(-0.447978 1.93061 0)
(-0.589286 2.241 0)
(-0.612347 2.05869 0)
(-0.458245 1.90706 0)
(-0.301818 1.65512 0)
(-0.0545872 1.46164 0)
(0.154995 1.26053 0)
(0.403697 1.08762 0)
(0.596783 0.91629 0)
(0.801514 0.731755 0)
(0.920454 0.528779 0)
(1.02648 0.252258 0)
(0.980561 -0.0788256 0)
(0.884806 -0.574167 0)
(0.521088 -1.16602 0)
(0.084162 -2.0396 0)
(-0.711223 -2.99218 0)
(-1.29267 -4.04399 0)
(-1.87358 -4.32141 0)
(-0.827851 -2.24853 0)
(-0.39837 1.43545 0)
(-0.729357 1.99864 0)
(-0.550464 2.17155 0)
(-0.314884 1.86251 0)
(0.178654 1.63714 0)
(0.568843 1.35595 0)
(1.04114 1.15173 0)
(1.41339 0.960595 0)
(1.80599 0.805828 0)
(2.10761 0.663808 0)
(2.40986 0.520688 0)
(2.60175 0.373706 0)
(2.7829 0.179944 0)
(2.78378 -0.0393678 0)
(2.75687 -0.374476 0)
(2.40263 -0.758929 0)
(2.00818 -1.39161 0)
(1.07646 -2.13249 0)
(0.265318 -3.27175 0)
(-0.786909 -3.92716 0)
(-0.692255 -2.94481 0)
(-0.252727 2.43709 0)
(-0.0865954 2.07736 0)
(0.70134 1.87746 0)
(1.33229 1.32268 0)
(2.11405 1.04485 0)
(2.69296 0.787323 0)
(3.28749 0.624603 0)
(3.73621 0.492764 0)
(4.17192 0.394646 0)
(4.49692 0.312487 0)
(4.80767 0.235697 0)
(5.00394 0.160313 0)
(5.18693 0.0658091 0)
(5.2005 -0.0408674 0)
(5.19705 -0.203054 0)
(4.89513 -0.395101 0)
(4.57003 -0.742002 0)
(3.69781 -1.21471 0)
(2.78133 -2.24331 0)
(1.05404 -3.31837 0)
(-0.0416294 -3.80177 0)
(1.67039 1.6727 0)
(2.71839 0.978861 0)
(4.56911 0.751398 0)
(5.40851 0.423887 0)
(6.26492 0.283379 0)
(6.75418 0.17265 0)
(7.2054 0.114686 0)
(7.49723 0.0743909 0)
(7.76387 0.0493257 0)
(7.9402 0.0312065 0)
(8.10459 0.0162113 0)
(8.18901 0.00254592 0)
(8.2699 -0.0151863 0)
(8.23503 -0.0340008 0)
(8.20541 -0.0691168 0)
(7.95524 -0.10446 0)
(7.72987 -0.198103 0)
(6.99699 -0.295768 0)
(6.26929 -0.632386 0)
(4.05122 -1.00567 0)
(2.01402 -1.82875 0)
)
;

boundaryField
{
    movingWall
    {
        type            fixedValue;
        value           uniform (10 0 0);
    }
    fixedWalls
    {
        type            noSlip;
    }
    frontAndBack
    {
        type            empty;
    }
}


// ************************************************************************* //
