/*--------------------------------*- C++ -*----------------------------------*\
| =========                 |                                                 |
| \\      /  F ield         | OpenFOAM: The Open Source CFD Toolbox           |
|  \\    /   O peration     | Version:  4.1                                   |
|   \\  /    A nd           | Web:      www.OpenFOAM.org                      |
|    \\/     M anipulation  |                                                 |
\*---------------------------------------------------------------------------*/
FoamFile
{
    version     2.0;
    format      ascii;
    class       volVectorField;
    location    "0.126";
    object      U;
}
// * * * * * * * * * * * * * * * * * * * * * * * * * * * * * * * * * * * * * //

dimensions      [0 1 -1 0 0 0 0];

internalField   nonuniform List<vector> 
1600
(
(1.45657e-05 -1.61268e-05 0)
(1.25778e-05 3.46809e-05 0)
(-8.53752e-05 0.000127337 0)
(-0.000301268 0.000234528 0)
(-0.00063844 0.000340075 0)
(-0.00108772 0.000434737 0)
(-0.00163294 0.00051334 0)
(-0.00225412 0.000573256 0)
(-0.00292963 0.000613473 0)
(-0.00363748 0.00063402 0)
(-0.00435622 0.000635602 0)
(-0.00506552 0.000619357 0)
(-0.00574652 0.000586703 0)
(-0.00638205 0.000539238 0)
(-0.00695682 0.000478675 0)
(-0.00745747 0.000406806 0)
(-0.00787266 0.00032548 0)
(-0.00819312 0.000236602 0)
(-0.00841169 0.000142124 0)
(-0.00852337 4.4057e-05 0)
(-0.00852538 -5.5532e-05 0)
(-0.0084172 -0.000154515 0)
(-0.00820067 -0.000250705 0)
(-0.00787999 -0.000341868 0)
(-0.00746179 -0.000425738 0)
(-0.00695518 -0.000500048 0)
(-0.00637168 -0.000562559 0)
(-0.00572524 -0.000611118 0)
(-0.00503208 -0.000643716 0)
(-0.00431054 -0.000658571 0)
(-0.00358082 -0.000654218 0)
(-0.00286458 -0.000629647 0)
(-0.0021844 -0.00058446 0)
(-0.00156309 -0.000519111 0)
(-0.00102258 -0.000435242 0)
(-0.000582504 -0.000336207 0)
(-0.000257987 -0.000227913 0)
(-5.64922e-05 -0.000120205 0)
(2.75055e-05 -2.94423e-05 0)
(1.81313e-05 1.82633e-05 0)
(-3.86582e-05 -1.67485e-05 0)
(-0.000223164 0.000212532 0)
(-0.000651179 0.000597714 0)
(-0.00136964 0.00103614 0)
(-0.00238637 0.00146627 0)
(-0.00368019 0.00185169 0)
(-0.00521242 0.00217157 0)
(-0.006934 0.00241506 0)
(-0.00879062 0.00257779 0)
(-0.0107261 0.00265965 0)
(-0.012685 0.00266333 0)
(-0.0146141 0.00259339 0)
(-0.0164635 0.00245557 0)
(-0.0181876 0.00225641 0)
(-0.0197456 0.00200297 0)
(-0.0211016 0.00170267 0)
(-0.0222252 0.00136318 0)
(-0.0230915 0.000992404 0)
(-0.0236813 0.000598475 0)
(-0.0239813 0.000189739 0)
(-0.0239843 -0.000225221 0)
(-0.023689 -0.000637582 0)
(-0.0231006 -0.0010383 0)
(-0.0222308 -0.00141814 0)
(-0.0210974 -0.00176776 0)
(-0.0197252 -0.00207783 0)
(-0.018145 -0.00233915 0)
(-0.0163941 -0.00254289 0)
(-0.0145154 -0.00268082 0)
(-0.0125575 -0.00274567 0)
(-0.010573 -0.0027315 0)
(-0.00861841 -0.00263423 0)
(-0.00675179 -0.00245236 0)
(-0.00503112 -0.00218783 0)
(-0.00351142 -0.00184745 0)
(-0.00224098 -0.00144487 0)
(-0.00125614 -0.00100377 0)
(-0.000574218 -0.000562968 0)
(-0.000182408 -0.000185176 0)
(-2.85674e-05 2.8443e-05 0)
(-0.000134372 7.78842e-05 0)
(-0.000618985 0.000633552 0)
(-0.00147351 0.00143567 0)
(-0.0027496 0.00231862 0)
(-0.00445336 0.00317614 0)
(-0.00655338 0.00394193 0)
(-0.00899414 0.00457637 0)
(-0.011705 0.00505789 0)
(-0.0146068 0.0053772 0)
(-0.0176171 0.00553337 0)
(-0.0206538 0.00553118 0)
(-0.0236374 0.00537928 0)
(-0.026493 0.00508894 0)
(-0.0291519 0.0046732 0)
(-0.0315522 0.00414629 0)
(-0.0336396 0.0035233 0)
(-0.0353679 0.00281993 0)
(-0.0366992 0.00205244 0)
(-0.0376046 0.00123754 0)
(-0.0380638 0.000392418 0)
(-0.0380659 -0.000465238 0)
(-0.0376096 -0.00131729 0)
(-0.0367028 -0.00214518 0)
(-0.0353635 -0.00293001 0)
(-0.0336191 -0.0036527 0)
(-0.0315072 -0.00429426 0)
(-0.0290747 -0.00483604 0)
(-0.0263777 -0.00526022 0)
(-0.0234812 -0.00555032 0)
(-0.0204576 -0.00569187 0)
(-0.0173859 -0.00567323 0)
(-0.0143496 -0.00548664 0)
(-0.0114346 -0.00512959 0)
(-0.00872585 -0.00460654 0)
(-0.00630344 -0.00393146 0)
(-0.00423714 -0.00313131 0)
(-0.00257945 -0.00225124 0)
(-0.00135667 -0.00136244 0)
(-0.00055594 -0.000574176 0)
(-0.000118192 -5.16805e-05 0)
(-0.000248693 0.000291728 0)
(-0.00108527 0.00135193 0)
(-0.00241398 0.00270573 0)
(-0.0042776 0.00414266 0)
(-0.00667238 0.005519 0)
(-0.00955402 0.00674042 0)
(-0.0128512 0.00774818 0)
(-0.0164748 0.00850906 0)
(-0.0203258 0.00900799 0)
(-0.0243005 0.00924279 0)
(-0.0282953 0.00922039 0)
(-0.0322097 0.0089541 0)
(-0.0359487 0.00846167 0)
(-0.0394248 0.00776396 0)
(-0.042559 0.00688397 0)
(-0.0452819 0.00584628 0)
(-0.0475345 0.00467661 0)
(-0.0492684 0.00340164 0)
(-0.0504465 0.00204893 0)
(-0.0510431 0.000646795 0)
(-0.0510446 -0.000775631 0)
(-0.0504491 -0.00218849 0)
(-0.0492673 -0.00356128 0)
(-0.047522 -0.00486301 0)
(-0.0452488 -0.00606247 0)
(-0.0424955 -0.00712867 0)
(-0.039322 -0.00803132 0)
(-0.0358 -0.00874156 0)
(-0.0320117 -0.00923286 0)
(-0.0280491 -0.00948211 0)
(-0.024012 -0.00947092 0)
(-0.0200058 -0.00918735 0)
(-0.0161385 -0.00862792 0)
(-0.0125167 -0.00780031 0)
(-0.00924124 -0.00672683 0)
(-0.0064002 -0.00544916 0)
(-0.00406167 -0.00403481 0)
(-0.00226416 -0.00258614 0)
(-0.00100335 -0.0012527 0)
(-0.000227221 -0.000246861 0)
(-0.000368846 0.000633983 0)
(-0.00157434 0.00239264 0)
(-0.00339456 0.0044419 0)
(-0.0058564 0.00654255 0)
(-0.00894013 0.00852268 0)
(-0.0125849 0.0102647 0)
(-0.0167024 0.0116927 0)
(-0.0211861 0.0127627 0)
(-0.025919 0.0134539 0)
(-0.0307794 0.0137632 0)
(-0.0356457 0.0137 0)
(-0.0404002 0.0132829 0)
(-0.0449315 0.012537 0)
(-0.0491367 0.0114922 0)
(-0.0529231 0.0101817 0)
(-0.0562091 0.00864106 0)
(-0.0589252 0.00690779 0)
(-0.0610147 0.00502084 0)
(-0.0624339 0.00302047 0)
(-0.0631527 0.000948156 0)
(-0.0631551 -0.0011535 0)
(-0.0624391 -0.00324083 0)
(-0.0610173 -0.0052693 0)
(-0.0589165 -0.00719372 0)
(-0.0561786 -0.00896868 0)
(-0.0528596 -0.0105492 0)
(-0.0490299 -0.0118913 0)
(-0.0447733 -0.0129533 0)
(-0.0401864 -0.0136972 0)
(-0.0353766 -0.0140897 0)
(-0.0304608 -0.0141047 0)
(-0.0255624 -0.0137255 0)
(-0.0208081 -0.0129472 0)
(-0.0163233 -0.0117807 0)
(-0.0122272 -0.0102568 0)
(-0.00862596 -0.00843142 0)
(-0.00560466 -0.00639313 0)
(-0.00321799 -0.00427148 0)
(-0.00147661 -0.00224796 0)
(-0.000342799 -0.000567153 0)
(-0.000488676 0.00110516 0)
(-0.00206254 0.00376128 0)
(-0.00437455 0.00665493 0)
(-0.00743308 0.00953023 0)
(-0.0111987 0.012196 0)
(-0.0155909 0.014517 0)
(-0.0205026 0.0164039 0)
(-0.0258094 0.0178037 0)
(-0.0313771 0.0186916 0)
(-0.0370675 0.0190641 0)
(-0.0427436 0.0189341 0)
(-0.0482727 0.0183264 0)
(-0.0535297 0.0172745 0)
(-0.0583993 0.0158183 0)
(-0.0627774 0.0140026 0)
(-0.0665729 0.0118752 0)
(-0.0697077 0.00948697 0)
(-0.0721184 0.00689055 0)
(-0.0737561 0.00414056 0)
(-0.0745873 0.00129324 0)
(-0.0745939 -0.00159365 0)
(-0.0737736 -0.00446095 0)
(-0.0721402 -0.00724834 0)
(-0.069724 -0.0098947 0)
(-0.0665713 -0.0123386 0)
(-0.0627446 -0.0145194 0)
(-0.0583225 -0.0163778 0)
(-0.0533985 -0.0178577 0)
(-0.0480805 -0.0189078 0)
(-0.042489 -0.0194835 0)
(-0.0367551 -0.0195499 0)
(-0.0310175 -0.0190841 0)
(-0.0254197 -0.0180794 0)
(-0.0201044 -0.0165488 0)
(-0.0152089 -0.0145304 0)
(-0.0108581 -0.0120932 0)
(-0.00715633 -0.00934346 0)
(-0.00417777 -0.00643322 0)
(-0.00195211 -0.00356812 0)
(-0.00045875 -0.00101398 0)
(-0.000605584 0.00170207 0)
(-0.00253964 0.00545426 0)
(-0.00533561 0.00934355 0)
(-0.00898293 0.0131058 0)
(-0.0134206 0.0165379 0)
(-0.0185463 0.0194928 0)
(-0.0242326 0.0218719 0)
(-0.0303361 0.0236161 0)
(-0.0367055 0.0246987 0)
(-0.0431869 0.0251177 0)
(-0.0496287 0.0248907 0)
(-0.0558853 0.0240498 0)
(-0.0618199 0.0226383 0)
(-0.0673066 0.0207073 0)
(-0.0722324 0.0183142 0)
(-0.076498 0.0155205 0)
(-0.080019 0.0123913 0)
(-0.0827265 0.00899449 0)
(-0.0845675 0.00540022 0)
(-0.0855055 0.00168077 0)
(-0.0855208 -0.00208963 0)
(-0.0846107 -0.00583498 0)
(-0.0827899 -0.00947781 0)
(-0.0800906 -0.0129396 0)
(-0.0765625 -0.0161417 0)
(-0.0722731 -0.0190059 0)
(-0.0673069 -0.0214563 0)
(-0.0617653 -0.0234208 0)
(-0.0557653 -0.0248333 0)
(-0.0494383 -0.0256366 0)
(-0.0429276 -0.025785 0)
(-0.0363862 -0.0252485 0)
(-0.0299728 -0.0240166 0)
(-0.0238474 -0.0221032 0)
(-0.0181658 -0.0195516 0)
(-0.0130729 -0.016441 0)
(-0.00869435 -0.0128923 0)
(-0.00512654 -0.00907502 0)
(-0.00242023 -0.00521265 0)
(-0.000572597 -0.00158519 0)
(-0.000718923 0.00242034 0)
(-0.00300299 0.00746424 0)
(-0.00627247 0.0125009 0)
(-0.0104985 0.0172634 0)
(-0.0155978 0.0215424 0)
(-0.021445 0.0251844 0)
(-0.0278908 0.0280857 0)
(-0.034772 0.0301849 0)
(-0.0419195 0.0314558 0)
(-0.0491638 0.0319004 0)
(-0.0563397 0.0315428 0)
(-0.0632897 0.0304241 0)
(-0.0698667 0.0285987 0)
(-0.075936 0.0261302 0)
(-0.081377 0.0230897 0)
(-0.0860841 0.0195536 0)
(-0.0899678 0.0156025 0)
(-0.0929549 0.0113201 0)
(-0.0949893 0.00679338 0)
(-0.0960321 0.00211146 0)
(-0.0960621 -0.00263396 0)
(-0.0950759 -0.00734905 0)
(-0.0930886 -0.0119382 0)
(-0.0901333 -0.0163043 0)
(-0.0862622 -0.0203502 0)
(-0.0815457 -0.0239791 0)
(-0.0760731 -0.027097 0)
(-0.0699516 -0.0296142 0)
(-0.0633058 -0.0314483 0)
(-0.0562762 -0.0325274 0)
(-0.0490173 -0.0327937 0)
(-0.0416951 -0.0322079 0)
(-0.0344833 -0.0307536 0)
(-0.0275594 -0.028443 0)
(-0.0210987 -0.0253225 0)
(-0.0152676 -0.0214781 0)
(-0.0102151 -0.0170417 0)
(-0.00606128 -0.012196 0)
(-0.00287939 -0.00717799 0)
(-0.000683951 -0.00227771 0)
(-0.000829081 0.0032558 0)
(-0.00345394 0.00978346 0)
(-0.00718718 0.0161188 0)
(-0.0119825 0.0219953 0)
(-0.0177343 0.027202 0)
(-0.024293 0.0315834 0)
(-0.0314865 0.035035 0)
(-0.039131 0.0374969 0)
(-0.0470391 0.0389466 0)
(-0.0550256 0.0393928 0)
(-0.0629121 0.0388684 0)
(-0.0705299 0.0374257 0)
(-0.0777227 0.0351313 0)
(-0.0843482 0.0320633 0)
(-0.0902798 0.0283075 0)
(-0.0954068 0.0239562 0)
(-0.0996358 0.0191062 0)
(-0.10289 0.0138584 0)
(-0.105112 0.00831662 0)
(-0.10626 0.00258785 0)
(-0.106312 -0.00321821 0)
(-0.105263 -0.00898924 0)
(-0.103129 -0.0146107 0)
(-0.0999416 -0.0199663 0)
(-0.0957553 -0.0249392 0)
(-0.0906421 -0.0294131 0)
(-0.0846942 -0.0332742 0)
(-0.0780232 -0.0364139 0)
(-0.0707597 -0.0387319 0)
(-0.0630522 -0.0401394 0)
(-0.0550651 -0.0405643 0)
(-0.046977 -0.0399553 0)
(-0.0389769 -0.0382878 0)
(-0.0312599 -0.0355695 0)
(-0.024022 -0.0318461 0)
(-0.0174527 -0.0272076 0)
(-0.0117258 -0.0217932 0)
(-0.00698705 -0.0157952 0)
(-0.00333247 -0.00946107 0)
(-0.000793564 -0.00308906 0)
(-0.000936953 0.00420521 0)
(-0.0038959 0.0124055 0)
(-0.00808561 0.0201898 0)
(-0.0134431 0.0272942 0)
(-0.01984 0.0335094 0)
(-0.0271026 0.0386819 0)
(-0.0350348 0.0427105 0)
(-0.0434314 0.0455405 0)
(-0.0520861 0.047157 0)
(-0.0607982 0.0475782 0)
(-0.0693761 0.0468488 0)
(-0.0776407 0.0450341 0)
(-0.0854273 0.0422155 0)
(-0.0925873 0.0384865 0)
(-0.0989891 0.0339493 0)
(-0.104518 0.0287129 0)
(-0.109079 0.0228913 0)
(-0.112592 0.0166027 0)
(-0.114997 0.00996862 0)
(-0.116252 0.00311407 0)
(-0.116334 -0.00383288 0)
(-0.115236 -0.0107411 0)
(-0.112973 -0.0174768 0)
(-0.109578 -0.0239038 0)
(-0.105103 -0.029885 0)
(-0.0996206 -0.0352833 0)
(-0.0932256 -0.0399643 0)
(-0.086032 -0.0437988 0)
(-0.0781751 -0.0466661 0)
(-0.06981 -0.0484589 0)
(-0.0611104 -0.0490878 0)
(-0.052267 -0.0484867 0)
(-0.0434839 -0.0466196 0)
(-0.0349749 -0.043486 0)
(-0.0269575 -0.0391278 0)
(-0.0196459 -0.033635 0)
(-0.0132403 -0.0271507 0)
(-0.00791327 -0.0198743 0)
(-0.00378468 -0.0120612 0)
(-0.000902778 -0.00401807 0)
(-0.00104365 0.00526652 0)
(-0.00433318 0.015326 0)
(-0.00897538 0.0247089 0)
(-0.0148908 0.0331548 0)
(-0.0219284 0.0404589 0)
(-0.0298892 0.0464731 0)
(-0.0385528 0.0511036 0)
(-0.0476918 0.0543051 0)
(-0.0570809 0.0560739 0)
(-0.0665034 0.0564412 0)
(-0.0757549 0.0554663 0)
(-0.0846465 0.0532305 0)
(-0.0930062 0.049832 0)
(-0.10068 0.0453813 0)
(-0.107533 0.0399984 0)
(-0.113447 0.03381 0)
(-0.118326 0.0269478 0)
(-0.122089 0.0195478 0)
(-0.124675 0.0117494 0)
(-0.126041 0.00369553 0)
(-0.126161 -0.00446726 0)
(-0.125029 -0.0125891 0)
(-0.122658 -0.0205167 0)
(-0.119078 -0.028094 0)
(-0.11434 -0.0351629 0)
(-0.108518 -0.0415649 0)
(-0.101704 -0.0471435 0)
(-0.0940148 -0.0517472 0)
(-0.0855885 -0.0552333 0)
(-0.0765855 -0.0574729 0)
(-0.067188 -0.0583564 0)
(-0.0575983 -0.0577997 0)
(-0.0480356 -0.0557512 0)
(-0.0387329 -0.0521985 0)
(-0.0299304 -0.0471757 0)
(-0.0218682 -0.040769 0)
(-0.014775 -0.0331221 0)
(-0.00885142 -0.0244386 0)
(-0.00424231 -0.0149813 0)
(-0.00101321 -0.00506533 0)
(-0.00115035 0.00643894 0)
(-0.0047703 0.0185433 0)
(-0.0098646 0.0296736 0)
(-0.016337 0.0395741 0)
(-0.0240133 0.0480462 0)
(-0.0326685 0.0549513 0)
(-0.0420573 0.0602065 0)
(-0.0519293 0.0637801 0)
(-0.0620399 0.0656837 0)
(-0.0721565 0.0659654 0)
(-0.0820625 0.0647025 0)
(-0.0915597 0.0619951 0)
(-0.10047 0.0579604 0)
(-0.108635 0.0527282 0)
(-0.115918 0.0464374 0)
(-0.1222 0.0392332 0)
(-0.127382 0.0312657 0)
(-0.131386 0.0226886 0)
(-0.134149 0.0136594 0)
(-0.135628 0.00433862 0)
(-0.135797 -0.00510922 0)
(-0.134646 -0.0145158 0)
(-0.132187 -0.0237086 0)
(-0.128448 -0.0325116 0)
(-0.123478 -0.0407455 0)
(-0.117346 -0.0482299 0)
(-0.110146 -0.0547849 0)
(-0.101991 -0.0602351 0)
(-0.0930221 -0.0644134 0)
(-0.0834038 -0.0671664 0)
(-0.0733251 -0.068361 0)
(-0.0629993 -0.0678909 0)
(-0.0526607 -0.065685 0)
(-0.0425616 -0.0617142 0)
(-0.0329661 -0.0560003 0)
(-0.0241419 -0.0486217 0)
(-0.0163474 -0.0397191 0)
(-0.00981369 -0.0294981 0)
(-0.00471205 -0.0182278 0)
(-0.00112655 -0.00623326 0)
(-0.00125821 0.00772298 0)
(-0.00521173 0.0220582 0)
(-0.0107613 0.0350847 0)
(-0.0177929 0.0465515 0)
(-0.0261082 0.0562692 0)
(-0.0354554 0.0641115 0)
(-0.0455629 0.0700109 0)
(-0.0561573 0.0739535 0)
(-0.0669742 0.0759708 0)
(-0.0777653 0.0761318 0)
(-0.0883025 0.0745357 0)
(-0.0983794 0.0713045 0)
(-0.107813 0.0665772 0)
(-0.116442 0.0605045 0)
(-0.124129 0.0532458 0)
(-0.130756 0.0449657 0)
(-0.136224 0.0358329 0)
(-0.140457 0.0260191 0)
(-0.143392 0.0156989 0)
(-0.144985 0.0050503 0)
(-0.145211 -0.00574513 0)
(-0.144059 -0.0165013 0)
(-0.141536 -0.0270272 0)
(-0.137667 -0.0371271 0)
(-0.132498 -0.0466007 0)
(-0.126094 -0.055245 0)
(-0.118544 -0.062856 0)
(-0.10996 -0.0692324 0)
(-0.100482 -0.0741805 0)
(-0.0902765 -0.0775194 0)
(-0.0795385 -0.0790883 0)
(-0.0684909 -0.0787546 0)
(-0.0573826 -0.0764222 0)
(-0.0464855 -0.0720407 0)
(-0.0360885 -0.0656141 0)
(-0.0264882 -0.0572086 0)
(-0.0179748 -0.046958 0)
(-0.0108122 -0.0350675 0)
(-0.00520051 -0.0218115 0)
(-0.00124451 -0.00752612 0)
(-0.00136833 0.00912029 0)
(-0.00566176 0.0258739 0)
(-0.0116731 0.0409452 0)
(-0.0192691 0.0540888 0)
(-0.0282255 0.0651267 0)
(-0.0382624 0.0739485 0)
(-0.0490811 0.0805069 0)
(-0.0603843 0.0848105 0)
(-0.0718878 0.0869155 0)
(-0.0833283 0.0869166 0)
(-0.0944666 0.0849389 0)
(-0.10509 0.0811297 0)
(-0.115012 0.0756526 0)
(-0.12407 0.0686817 0)
(-0.132128 0.060398 0)
(-0.13907 0.0509863 0)
(-0.1448 0.040634 0)
(-0.149244 0.0295305 0)
(-0.152342 0.0178671 0)
(-0.15405 0.00583773 0)
(-0.154342 -0.00635972 0)
(-0.153206 -0.0185226 0)
(-0.150645 -0.0304427 0)
(-0.146681 -0.0419051 0)
(-0.141353 -0.0526892 0)
(-0.13472 -0.062569 0)
(-0.126866 -0.0713156 0)
(-0.117898 -0.0787006 0)
(-0.107954 -0.0845007 0)
(-0.097199 -0.0885042 0)
(-0.085832 -0.0905185 0)
(-0.0740839 -0.0903795 0)
(-0.0622176 -0.0879606 0)
(-0.0505242 -0.083184 0)
(-0.0393181 -0.0760302 0)
(-0.0289262 -0.0665476 0)
(-0.0196732 -0.0548589 0)
(-0.0118583 -0.0411657 0)
(-0.00571407 -0.0257466 0)
(-0.00136874 -0.00894996 0)
(-0.00148181 0.0106337 0)
(-0.0061245 0.0299961 0)
(-0.0126072 0.0472608 0)
(-0.0207751 0.0621894 0)
(-0.030376 0.074618 0)
(-0.0410997 0.0844564 0)
(-0.0526193 0.0916821 0)
(-0.064613 0.096332 0)
(-0.0767769 0.0984923 0)
(-0.0888332 0.0982887 0)
(-0.100533 0.0958767 0)
(-0.111659 0.0914329 0)
(-0.122023 0.0851486 0)
(-0.131465 0.0772231 0)
(-0.13985 0.0678607 0)
(-0.147068 0.057267 0)
(-0.153029 0.0456481 0)
(-0.15766 0.0332104 0)
(-0.160907 0.0201607 0)
(-0.162726 0.00670773 0)
(-0.163092 -0.00693612 0)
(-0.161991 -0.0205534 0)
(-0.159422 -0.0339197 0)
(-0.155401 -0.046803 0)
(-0.149961 -0.0589626 0)
(-0.143153 -0.0701502 0)
(-0.135052 -0.0801113 0)
(-0.125758 -0.0885888 0)
(-0.115402 -0.0953276 0)
(-0.104148 -0.100081 0)
(-0.0921933 -0.102621 0)
(-0.0797767 -0.102746 0)
(-0.0671723 -0.100292 0)
(-0.0546903 -0.0951464 0)
(-0.0426705 -0.0872605 0)
(-0.0314722 -0.0766578 0)
(-0.021457 -0.0634447 0)
(-0.0129629 -0.0478153 0)
(-0.00625879 -0.030051 0)
(-0.0015008 -0.0105125 0)
(-0.00159971 0.012267 0)
(-0.00660404 0.0344324 0)
(-0.0135706 0.0540395 0)
(-0.0223201 0.0708582 0)
(-0.0325689 0.0847422 0)
(-0.0439747 0.0956265 0)
(-0.0561807 0.103519 0)
(-0.0688397 0.108492 0)
(-0.0816286 0.110667 0)
(-0.0942561 0.110207 0)
(-0.106466 0.107303 0)
(-0.118038 0.102165 0)
(-0.128784 0.0950155 0)
(-0.138549 0.0860811 0)
(-0.147205 0.0755906 0)
(-0.154649 0.0637712 0)
(-0.160796 0.0508472 0)
(-0.165582 0.037041 0)
(-0.168956 0.0225734 0)
(-0.170879 0.00766622 0)
(-0.171325 -0.00745595 0)
(-0.170278 -0.0225629 0)
(-0.167734 -0.0374166 0)
(-0.163702 -0.0517692 0)
(-0.158206 -0.0653618 0)
(-0.151287 -0.0779242 0)
(-0.143008 -0.0891764 0)
(-0.133461 -0.0988313 0)
(-0.122764 -0.1066 0)
(-0.111076 -0.112197 0)
(-0.0985917 -0.115353 0)
(-0.0855523 -0.115822 0)
(-0.0722417 -0.113398 0)
(-0.0589878 -0.107924 0)
(-0.046156 -0.0993135 0)
(-0.0341391 -0.0875578 0)
(-0.0233385 -0.0727402 0)
(-0.0141355 -0.0550424 0)
(-0.00684035 -0.0347456 0)
(-0.00164221 -0.0122231 0)
(-0.00172316 0.0140252 0)
(-0.00710458 0.0391926 0)
(-0.0145704 0.0612909 0)
(-0.0239125 0.0801005 0)
(-0.0348124 0.0954971 0)
(-0.0468923 0.107447 0)
(-0.0597638 0.115996 0)
(-0.0730537 0.121257 0)
(-0.0864202 0.123396 0)
(-0.0995601 0.122619 0)
(-0.112212 0.119159 0)
(-0.124154 0.113264 0)
(-0.135206 0.10519 0)
(-0.145218 0.0951943 0)
(-0.154072 0.083532 0)
(-0.161675 0.0704511 0)
(-0.167953 0.056194 0)
(-0.17285 0.0409974 0)
(-0.176321 0.0250945 0)
(-0.178333 0.00871744 0)
(-0.178861 -0.00789958 0)
(-0.177888 -0.0245165 0)
(-0.175406 -0.0408843 0)
(-0.171415 -0.0567419 0)
(-0.165929 -0.0718143 0)
(-0.158976 -0.0858109 0)
(-0.150606 -0.0984265 0)
(-0.140894 -0.109343 0)
(-0.129947 -0.118236 0)
(-0.117911 -0.124778 0)
(-0.104974 -0.128652 0)
(-0.0913758 -0.129561 0)
(-0.0774071 -0.127247 0)
(-0.0634108 -0.121503 0)
(-0.0497778 -0.112192 0)
(-0.0369354 -0.0992637 0)
(-0.025328 -0.0827705 0)
(-0.0153849 -0.0628748 0)
(-0.00746413 -0.0398539 0)
(-0.00179441 -0.0140926 0)
(-0.0018534 0.0159144 0)
(-0.00763069 0.0442883 0)
(-0.0156139 0.0690261 0)
(-0.0255609 0.0899217 0)
(-0.0371133 0.106878 0)
(-0.0498545 0.1199 0)
(-0.0633619 0.129079 0)
(-0.0772363 0.134579 0)
(-0.0911177 0.136619 0)
(-0.104693 0.135455 0)
(-0.117699 0.131367 0)
(-0.129918 0.124647 0)
(-0.141176 0.11559 0)
(-0.151337 0.104485 0)
(-0.160297 0.0916135 0)
(-0.167975 0.0772455 0)
(-0.174311 0.06164 0)
(-0.179261 0.0450465 0)
(-0.18279 0.0277077 0)
(-0.18487 0.00986309 0)
(-0.185479 -0.00824659 0)
(-0.1846 -0.0263751 0)
(-0.182219 -0.0442658 0)
(-0.178328 -0.061648 0)
(-0.172928 -0.0782331 0)
(-0.166033 -0.0937125 0)
(-0.157674 -0.107757 0)
(-0.147908 -0.120018 0)
(-0.136824 -0.130132 0)
(-0.124549 -0.137726 0)
(-0.111261 -0.142432 0)
(-0.097191 -0.143895 0)
(-0.0826328 -0.141792 0)
(-0.0679412 -0.135856 0)
(-0.0535308 -0.125888 0)
(-0.0398645 -0.111786 0)
(-0.0274328 -0.0935592 0)
(-0.0167187 -0.071342 0)
(-0.00813514 -0.0454019 0)
(-0.00195879 -0.0161331 0)
(-0.00199185 0.0179421 0)
(-0.00818759 0.0497335 0)
(-0.0167094 0.077258 0)
(-0.0272742 0.100326 0)
(-0.0394779 0.118876 0)
(-0.0528604 0.13296 0)
(-0.0669631 0.142726 0)
(-0.0813598 0.1484 0)
(-0.0956742 0.150261 0)
(-0.109586 0.148625 0)
(-0.122834 0.143829 0)
(-0.13521 0.136213 0)
(-0.146552 0.126114 0)
(-0.156741 0.113855 0)
(-0.16569 0.0997461 0)
(-0.173339 0.0840775 0)
(-0.179643 0.0671237 0)
(-0.184573 0.0491446 0)
(-0.188107 0.0303893 0)
(-0.190224 0.0111013 0)
(-0.190908 -0.00847639 0)
(-0.19014 -0.0280955 0)
(-0.187902 -0.0474963 0)
(-0.184176 -0.0664022 0)
(-0.178951 -0.0845151 0)
(-0.17222 -0.101511 0)
(-0.163996 -0.11704 0)
(-0.15431 -0.130721 0)
(-0.143227 -0.142154 0)
(-0.130851 -0.150917 0)
(-0.117342 -0.156582 0)
(-0.102916 -0.158728 0)
(-0.0878633 -0.156961 0)
(-0.0725462 -0.150936 0)
(-0.0574001 -0.140382 0)
(-0.0429239 -0.125128 0)
(-0.0296573 -0.105126 0)
(-0.0181431 -0.080473 0)
(-0.00885814 -0.0514173 0)
(-0.00213674 -0.0183585 0)
(-0.00214024 0.0201171 0)
(-0.00878146 0.0555447 0)
(-0.0178663 0.0860004 0)
(-0.0290621 0.111318 0)
(-0.0419117 0.131478 0)
(-0.0559063 0.146593 0)
(-0.0705486 0.15688 0)
(-0.0853859 0.162639 0)
(-0.100027 0.164223 0)
(-0.114151 0.162019 0)
(-0.127501 0.156424 0)
(-0.139883 0.147836 0)
(-0.151157 0.136636 0)
(-0.161224 0.123185 0)
(-0.170022 0.10782 0)
(-0.177512 0.0908519 0)
(-0.183674 0.0725681 0)
(-0.188494 0.053236 0)
(-0.191965 0.0331075 0)
(-0.194079 0.0124256 0)
(-0.194824 -0.00856914 0)
(-0.194182 -0.0296311 0)
(-0.192131 -0.0505027 0)
(-0.188644 -0.0709066 0)
(-0.183692 -0.0905397 0)
(-0.17725 -0.109068 0)
(-0.169303 -0.12612 0)
(-0.159856 -0.141291 0)
(-0.148943 -0.154138 0)
(-0.136637 -0.164189 0)
(-0.12307 -0.170953 0)
(-0.108439 -0.173934 0)
(-0.093019 -0.172652 0)
(-0.0771749 -0.166674 0)
(-0.0613588 -0.155635 0)
(-0.046104 -0.139279 0)
(-0.0320024 -0.117485 0)
(-0.0196633 -0.0902955 0)
(-0.00963759 -0.0579286 0)
(-0.00232961 -0.0207835 0)
(-0.00230063 0.0224504 0)
(-0.00941985 0.0617409 0)
(-0.0190957 0.0952684 0)
(-0.0309355 0.122896 0)
(-0.0444194 0.144661 0)
(-0.0589842 0.160749 0)
(-0.0740915 0.171464 0)
(-0.0892628 0.177195 0)
(-0.104097 0.178382 0)
(-0.118274 0.175494 0)
(-0.131551 0.169 0)
(-0.143757 0.159359 0)
(-0.154777 0.147002 0)
(-0.164542 0.132328 0)
(-0.173018 0.115702 0)
(-0.180196 0.0974528 0)
(-0.18608 0.0778791 0)
(-0.19068 0.0572513 0)
(-0.194007 0.0358202 0)
(-0.196064 0.0138231 0)
(-0.196849 -0.00850689 0)
(-0.196345 -0.0309329 0)
(-0.194526 -0.0532048 0)
(-0.191355 -0.075051 0)
(-0.186786 -0.0961692 0)
(-0.180772 -0.116219 0)
(-0.173269 -0.134818 0)
(-0.164248 -0.151532 0)
(-0.153705 -0.165883 0)
(-0.141677 -0.177345 0)
(-0.128257 -0.185359 0)
(-0.11361 -0.189346 0)
(-0.0979907 -0.188729 0)
(-0.0817546 -0.182966 0)
(-0.0653646 -0.171582 0)
(-0.0493857 -0.154212 0)
(-0.0344639 -0.130641 0)
(-0.0212822 -0.100833 0)
(-0.0104776 -0.0649652 0)
(-0.00253872 -0.0234244 0)
(-0.00247562 0.0249553 0)
(-0.010112 0.0683448 0)
(-0.0204111 0.105078 0)
(-0.0329062 0.135058 0)
(-0.0470042 0.158393 0)
(-0.0620806 0.175364 0)
(-0.0775537 0.18638 0)
(-0.0929215 0.191937 0)
(-0.107777 0.192582 0)
(-0.121811 0.188875 0)
(-0.134803 0.181371 0)
(-0.14661 0.170593 0)
(-0.157153 0.157025 0)
(-0.1664 0.141108 0)
(-0.174354 0.123232 0)
(-0.181037 0.103742 0)
(-0.186486 0.0829435 0)
(-0.190736 0.0611061 0)
(-0.193819 0.0384739 0)
(-0.195754 0.0152738 0)
(-0.196548 -0.00827504 0)
(-0.196189 -0.0319503 0)
(-0.194646 -0.0555165 0)
(-0.191873 -0.078714 0)
(-0.187807 -0.101248 0)
(-0.182375 -0.122781 0)
(-0.175503 -0.14292 0)
(-0.167123 -0.161213 0)
(-0.157187 -0.177145 0)
(-0.145685 -0.19014 0)
(-0.132661 -0.199565 0)
(-0.118237 -0.20475 0)
(-0.102633 -0.205009 0)
(-0.0861848 -0.199671 0)
(-0.0693559 -0.188127 0)
(-0.052738 -0.169878 0)
(-0.0370318 -0.144582 0)
(-0.0230008 -0.112105 0)
(-0.0113817 -0.0725557 0)
(-0.00276537 -0.0262988 0)
(-0.00266837 0.027648 0)
(-0.0108691 0.0753827 0)
(-0.0218279 0.115445 0)
(-0.034987 0.147793 0)
(-0.0496663 0.172628 0)
(-0.065173 0.190349 0)
(-0.0808812 0.201497 0)
(-0.0962692 0.2067 0)
(-0.110932 0.206627 0)
(-0.124581 0.201949 0)
(-0.137028 0.19331 0)
(-0.148171 0.18131 0)
(-0.157974 0.166487 0)
(-0.166451 0.14932 0)
(-0.173647 0.130224 0)
(-0.179626 0.109558 0)
(-0.184457 0.0876283 0)
(-0.188207 0.0646992 0)
(-0.190929 0.0410026 0)
(-0.192664 0.0167484 0)
(-0.193427 -0.00786408 0)
(-0.193212 -0.0326342 0)
(-0.191987 -0.0573478 0)
(-0.189696 -0.0817651 0)
(-0.18626 -0.105608 0)
(-0.18158 -0.128546 0)
(-0.175547 -0.150187 0)
(-0.168051 -0.170067 0)
(-0.158993 -0.18764 0)
(-0.148308 -0.202281 0)
(-0.135979 -0.213283 0)
(-0.122072 -0.219879 0)
(-0.106755 -0.221255 0)
(-0.0903294 -0.216598 0)
(-0.0732459 -0.205133 0)
(-0.0561143 -0.186194 0)
(-0.0396875 -0.159279 0)
(-0.0248165 -0.124119 0)
(-0.0123527 -0.0807273 0)
(-0.00301071 -0.0294254 0)
(-0.00288273 0.0305485 0)
(-0.0117046 0.0828854 0)
(-0.0233639 0.126386 0)
(-0.0371898 0.161083 0)
(-0.0523995 0.187299 0)
(-0.068225 0.205587 0)
(-0.0839966 0.216649 0)
(-0.09918 0.221274 0)
(-0.113384 0.220277 0)
(-0.126352 0.214453 0)
(-0.137942 0.204548 0)
(-0.148106 0.191241 0)
(-0.156863 0.175127 0)
(-0.16428 0.156722 0)
(-0.170452 0.136462 0)
(-0.175488 0.114714 0)
(-0.179496 0.09178 0)
(-0.182575 0.0679131 0)
(-0.184806 0.0433267 0)
(-0.186247 0.0182076 0)
(-0.186929 -0.00727149 0)
(-0.186851 -0.0329383 0)
(-0.185982 -0.058608 0)
(-0.184257 -0.0840682 0)
(-0.181581 -0.109065 0)
(-0.177831 -0.133287 0)
(-0.172863 -0.156352 0)
(-0.16652 -0.177791 0)
(-0.158648 -0.197038 0)
(-0.149116 -0.213422 0)
(-0.137836 -0.226166 0)
(-0.124801 -0.234397 0)
(-0.110109 -0.237168 0)
(-0.0940063 -0.233495 0)
(-0.0769141 -0.222411 0)
(-0.0594455 -0.20304 0)
(-0.0424002 -0.174678 0)
(-0.0267212 -0.136873 0)
(-0.0133918 -0.0895039 0)
(-0.00327564 -0.032824 0)
(-0.00312322 0.0336815 0)
(-0.0126341 0.0908886 0)
(-0.0250377 0.137914 0)
(-0.0395229 0.174893 0)
(-0.055186 0.202312 0)
(-0.0711773 0.220919 0)
(-0.0867874 0.23162 0)
(-0.101481 0.235396 0)
(-0.114896 0.233233 0)
(-0.126825 0.22607 0)
(-0.13719 0.214763 0)
(-0.146009 0.200072 0)
(-0.153369 0.182649 0)
(-0.159398 0.163042 0)
(-0.164249 0.141704 0)
(-0.168079 0.119 0)
(-0.171039 0.0952259 0)
(-0.173262 0.070614 0)
(-0.174855 0.0453532 0)
(-0.175899 0.0196007 0)
(-0.176439 -0.00650381 0)
(-0.176482 -0.0328235 0)
(-0.175999 -0.0592097 0)
(-0.174921 -0.0854863 0)
(-0.173137 -0.111433 0)
(-0.170501 -0.136767 0)
(-0.166835 -0.161128 0)
(-0.161935 -0.184053 0)
(-0.155588 -0.204967 0)
(-0.147589 -0.223164 0)
(-0.137768 -0.237801 0)
(-0.126026 -0.247902 0)
(-0.112372 -0.252371 0)
(-0.0969731 -0.250037 0)
(-0.0801941 -0.239705 0)
(-0.0626319 -0.220243 0)
(-0.0451213 -0.190685 0)
(-0.028699 -0.150342 0)
(-0.0144974 -0.0989041 0)
(-0.00356049 -0.0365159 0)
(-0.00339492 0.0370774 0)
(-0.0136745 0.0994326 0)
(-0.0268665 0.150036 0)
(-0.0419854 0.189168 0)
(-0.0579861 0.217535 0)
(-0.0739334 0.236135 0)
(-0.0890879 0.24613 0)
(-0.102931 0.248735 0)
(-0.11515 0.245134 0)
(-0.125613 0.236424 0)
(-0.134321 0.223579 0)
(-0.141377 0.207442 0)
(-0.146944 0.188715 0)
(-0.151225 0.167974 0)
(-0.154433 0.145678 0)
(-0.156776 0.122187 0)
(-0.158448 0.0977764 0)
(-0.159618 0.0726537 0)
(-0.16042 0.0469763 0)
(-0.160955 0.0208653 0)
(-0.161284 -0.00557857 0)
(-0.161424 -0.0322602 0)
(-0.161351 -0.0590742 0)
(-0.16099 -0.0858883 0)
(-0.160223 -0.112525 0)
(-0.158883 -0.138742 0)
(-0.15676 -0.164211 0)
(-0.153607 -0.188493 0)
(-0.149148 -0.211016 0)
(-0.143102 -0.231055 0)
(-0.135204 -0.24771 0)
(-0.125248 -0.259908 0)
(-0.11313 -0.266402 0)
(-0.0989064 -0.265811 0)
(-0.0828562 -0.256676 0)
(-0.0655293 -0.237558 0)
(-0.0477753 -0.20716 0)
(-0.0307202 -0.164477 0)
(-0.0156632 -0.108938 0)
(-0.00386443 -0.0405228 0)
(-0.003703 0.0407733 0)
(-0.0148423 0.108561 0)
(-0.028861 0.162746 0)
(-0.0445566 0.203818 0)
(-0.060722 0.232778 0)
(-0.0763378 0.250953 0)
(-0.0906523 0.259822 0)
(-0.10319 0.260881 0)
(-0.113721 0.255539 0)
(-0.12221 0.245067 0)
(-0.128764 0.230561 0)
(-0.133587 0.212941 0)
(-0.136932 0.192952 0)
(-0.139078 0.171185 0)
(-0.140303 0.148097 0)
(-0.140869 0.124029 0)
(-0.141011 0.0992299 0)
(-0.140928 0.0738739 0)
(-0.140782 0.0480801 0)
(-0.140694 0.021928 0)
(-0.140738 -0.00452587 0)
(-0.140943 -0.0312332 0)
(-0.14129 -0.0581376 0)
(-0.141706 -0.0851575 0)
(-0.142068 -0.112167 0)
(-0.142194 -0.138975 0)
(-0.141849 -0.165299 0)
(-0.140746 -0.19074 0)
(-0.138552 -0.214748 0)
(-0.134907 -0.236596 0)
(-0.129446 -0.25535 0)
(-0.121839 -0.269849 0)
(-0.111843 -0.2787 0)
(-0.0993743 -0.280298 0)
(-0.0845818 -0.272887 0)
(-0.0679285 -0.254657 0)
(-0.0502452 -0.223899 0)
(-0.0327336 -0.179192 0)
(-0.0168738 -0.119602 0)
(-0.00418455 -0.0448671 0)
(-0.00405182 0.0448136 0)
(-0.0161495 0.118317 0)
(-0.031015 0.176016 0)
(-0.0471786 0.2187 0)
(-0.063251 0.247775 0)
(-0.0781406 0.264996 0)
(-0.091114 0.272236 0)
(-0.101779 0.271322 0)
(-0.110025 0.263919 0)
(-0.11595 0.25148 0)
(-0.119792 0.235218 0)
(-0.121868 0.216119 0)
(-0.122534 0.194957 0)
(-0.122148 0.172325 0)
(-0.121052 0.14866 0)
(-0.119557 0.124275 0)
(-0.117933 0.0993816 0)
(-0.116409 0.0741124 0)
(-0.115167 0.0485426 0)
(-0.114345 0.0227059 0)
(-0.114029 -0.0033893 0)
(-0.11426 -0.029745 0)
(-0.115027 -0.0563575 0)
(-0.116261 -0.0832014 0)
(-0.117841 -0.11021 0)
(-0.119579 -0.137251 0)
(-0.121224 -0.164105 0)
(-0.122459 -0.190426 0)
(-0.122902 -0.215712 0)
(-0.122119 -0.239259 0)
(-0.119643 -0.260122 0)
(-0.115009 -0.277078 0)
(-0.107816 -0.2886 0)
(-0.0977975 -0.292859 0)
(-0.0849272 -0.287771 0)
(-0.0695242 -0.271095 0)
(-0.0523502 -0.240608 0)
(-0.0346524 -0.194343 0)
(-0.0180987 -0.130871 0)
(-0.00451401 -0.0495701 0)
(-0.00444276 0.0492506 0)
(-0.0175951 0.128737 0)
(-0.0332879 0.189774 0)
(-0.0497243 0.233591 0)
(-0.0653212 0.262149 0)
(-0.078943 0.277759 0)
(-0.0899253 0.282783 0)
(-0.0980147 0.279432 0)
(-0.10327 0.269649 0)
(-0.105959 0.255067 0)
(-0.106475 0.237005 0)
(-0.105266 0.216494 0)
(-0.102791 0.194315 0)
(-0.0994859 0.17104 0)
(-0.0957509 0.147073 0)
(-0.0919363 0.122683 0)
(-0.0883416 0.0980346 0)
(-0.085214 0.0732125 0)
(-0.0827502 0.0482429 0)
(-0.0810972 0.0231107 0)
(-0.0803532 -0.0022255 0)
(-0.0805674 -0.0278189 0)
(-0.0817378 -0.0537203 0)
(-0.0838083 -0.0799627 0)
(-0.086663 -0.106542 0)
(-0.0901204 -0.133397 0)
(-0.0939264 -0.160379 0)
(-0.0977477 -0.187215 0)
(-0.101169 -0.213474 0)
(-0.103694 -0.238504 0)
(-0.104761 -0.261387 0)
(-0.103771 -0.280871 0)
(-0.100143 -0.295328 0)
(-0.0933962 -0.302719 0)
(-0.0832696 -0.300614 0)
(-0.0698675 -0.286282 0)
(-0.0538085 -0.256873 0)
(-0.0363303 -0.209714 0)
(-0.0192801 -0.14269 0)
(-0.0048389 -0.0546507 0)
(-0.00487022 0.0541428 0)
(-0.0191498 0.139837 0)