/*--------------------------------*- C++ -*----------------------------------*\
| =========                 |                                                 |
| \\      /  F ield         | OpenFOAM: The Open Source CFD Toolbox           |
|  \\    /   O peration     | Version:  4.1                                   |
|   \\  /    A nd           | Web:      www.OpenFOAM.org                      |
|    \\/     M anipulation  |                                                 |
\*---------------------------------------------------------------------------*/
FoamFile
{
    version     2.0;
    format      ascii;
    class       volVectorField;
    location    "5";
    object      U;
}
// * * * * * * * * * * * * * * * * * * * * * * * * * * * * * * * * * * * * * //

dimensions      [0 1 -1 0 0 0 0];

internalField   nonuniform List<vector> 
10000
(
(4.35865e-06 -4.35739e-06 0)
(1.83035e-05 -7.57396e-06 0)
(3.28461e-05 -7.57395e-06 0)
(4.36009e-05 -5.02231e-06 0)
(4.74611e-05 -8.98102e-07 0)
(4.25504e-05 4.08047e-06 0)
(2.79105e-05 9.43305e-06 0)
(3.21833e-06 1.48494e-05 0)
(-3.14291e-05 2.01325e-05 0)
(-7.56645e-05 2.51607e-05 0)
(-0.000128952 2.98615e-05 0)
(-0.000190657 3.41954e-05 0)
(-0.000260091 3.81447e-05 0)
(-0.000336545 4.1706e-05 0)
(-0.000419313 4.48855e-05 0)
(-0.000507698 4.76952e-05 0)
(-0.000601032 5.0151e-05 0)
(-0.000698671 5.22706e-05 0)
(-0.000800007 5.40725e-05 0)
(-0.000904461 5.55753e-05 0)
(-0.00101149 5.67967e-05 0)
(-0.00112057 5.77532e-05 0)
(-0.00123123 5.84601e-05 0)
(-0.001343 5.89309e-05 0)
(-0.00145544 5.91775e-05 0)
(-0.00156814 5.92101e-05 0)
(-0.0016807 5.9037e-05 0)
(-0.00179273 5.8665e-05 0)
(-0.00190386 5.80993e-05 0)
(-0.00201371 5.73438e-05 0)
(-0.00212194 5.6401e-05 0)
(-0.00222817 5.52723e-05 0)
(-0.00233207 5.39585e-05 0)
(-0.00243327 5.24593e-05 0)
(-0.00253142 5.07742e-05 0)
(-0.00262617 4.89023e-05 0)
(-0.00271716 4.68428e-05 0)
(-0.00280404 4.45949e-05 0)
(-0.00288644 4.21582e-05 0)
(-0.00296401 3.9533e-05 0)
(-0.0030364 3.67203e-05 0)
(-0.00310325 3.3722e-05 0)
(-0.00316422 3.05411e-05 0)
(-0.00321896 2.71822e-05 0)
(-0.00326716 2.36511e-05 0)
(-0.00330849 1.99551e-05 0)
(-0.00334265 1.61035e-05 0)
(-0.00336937 1.21071e-05 0)
(-0.00338838 7.97873e-06 0)
(-0.00339946 3.73297e-06 0)
(-0.00340241 -6.13557e-07 0)
(-0.00339704 -5.04241e-06 0)
(-0.00338325 -9.53326e-06 0)
(-0.00336092 -1.4064e-05 0)
(-0.00333001 -1.86108e-05 0)
(-0.00329052 -2.31483e-05 0)
(-0.0032425 -2.76497e-05 0)
(-0.00318605 -3.2087e-05 0)
(-0.0031213 -3.64313e-05 0)
(-0.00304848 -4.06527e-05 0)
(-0.00296784 -4.47211e-05 0)
(-0.0028797 -4.86061e-05 0)
(-0.00278444 -5.22772e-05 0)
(-0.00268248 -5.57047e-05 0)
(-0.00257431 -5.88595e-05 0)
(-0.00246048 -6.17135e-05 0)
(-0.00234157 -6.42403e-05 0)
(-0.00221822 -6.64151e-05 0)
(-0.0020911 -6.82153e-05 0)
(-0.00196095 -6.96207e-05 0)
(-0.00182852 -7.06139e-05 0)
(-0.00169459 -7.11803e-05 0)
(-0.00155998 -7.13088e-05 0)
(-0.0014255 -7.09915e-05 0)
(-0.00129201 -7.02243e-05 0)
(-0.00116034 -6.90065e-05 0)
(-0.00103134 -6.73415e-05 0)
(-0.000905824 -6.52365e-05 0)
(-0.00078462 -6.27028e-05 0)
(-0.000668511 -5.97553e-05 0)
(-0.000558255 -5.64131e-05 0)
(-0.000454568 -5.26993e-05 0)
(-0.000358121 -4.86408e-05 0)
(-0.000269529 -4.42689e-05 0)
(-0.000189344 -3.96192e-05 0)
(-0.000118046 -3.47321e-05 0)
(-5.60372e-05 -2.96535e-05 0)
(-3.62367e-06 -2.44359e-05 0)
(3.89917e-05 -1.91401e-05 0)
(7.1729e-05 -1.38376e-05 0)
(9.46531e-05 -8.61448e-06 0)
(0.000108003 -3.577e-06 0)
(0.000112232 1.14057e-06 0)
(0.000108065 5.3645e-06 0)
(9.65744e-05 8.86602e-06 0)
(7.92783e-05 1.13418e-05 0)
(5.82641e-05 1.23952e-05 0)
(3.62979e-05 1.15406e-05 0)
(1.67577e-05 8.35121e-06 0)
(3.26717e-06 3.26209e-06 0)
(7.60774e-06 -1.83138e-05 0)
(3.24837e-05 -3.23768e-05 0)
(5.48392e-05 -2.99875e-05 0)
(6.54469e-05 -1.61524e-05 0)
(5.7519e-05 4.86719e-06 0)
(2.67352e-05 2.99477e-05 0)
(-2.9317e-05 5.69148e-05 0)
(-0.000111628 8.43025e-05 0)
(-0.000220174 0.000111143 0)
(-0.000354229 0.000136814 0)
(-0.000512596 0.000160928 0)
(-0.000693768 0.00018326 0)
(-0.000896053 0.000203696 0)
(-0.00111766 0.000222194 0)
(-0.00135676 0.000238769 0)
(-0.00161152 0.000253463 0)
(-0.00188016 0.000266346 0)
(-0.00216093 0.000277495 0)
(-0.00245217 0.000286997 0)
(-0.00275227 0.000294938 0)
(-0.00305971 0.000301402 0)
(-0.00337304 0.000306472 0)
(-0.00369087 0.000310221 0)
(-0.00401188 0.000312715 0)
(-0.00433481 0.000314015 0)
(-0.00465845 0.000314171 0)
(-0.00498163 0.000313226 0)
(-0.00530323 0.000311214 0)
(-0.00562216 0.000308164 0)
(-0.00593733 0.000304094 0)
(-0.00624769 0.00029902 0)
(-0.0065522 0.000292951 0)
(-0.00684982 0.00028589 0)
(-0.00713953 0.00027784 0)
(-0.00742031 0.000268799 0)
(-0.00769111 0.000258766 0)
(-0.00795094 0.000247737 0)
(-0.00819875 0.000235712 0)
(-0.00843353 0.000222691 0)
(-0.00865427 0.000208677 0)
(-0.00885997 0.00019368 0)
(-0.00904964 0.00017771 0)
(-0.0092223 0.000160788 0)
(-0.00937701 0.000142938 0)
(-0.00951286 0.000124194 0)
(-0.00962899 0.000104597 0)
(-0.00972456 8.41955e-05 0)
(-0.00979882 6.30498e-05 0)
(-0.00985107 4.12276e-05 0)
(-0.00988068 1.88072e-05 0)
(-0.00988712 -4.12364e-06 0)
(-0.00986995 -2.74676e-05 0)
(-0.00982883 -5.11178e-05 0)
(-0.00976354 -7.49584e-05 0)
(-0.00967397 -9.88647e-05 0)
(-0.00956015 -0.000122705 0)
(-0.00942224 -0.000146339 0)
(-0.00926054 -0.000169622 0)
(-0.00907551 -0.000192403 0)
(-0.00886775 -0.000214529 0)
(-0.00863801 -0.000235842 0)
(-0.00838721 -0.000256187 0)
(-0.00811641 -0.000275407 0)
(-0.00782684 -0.000293347 0)
(-0.00751985 -0.000309859 0)
(-0.00719697 -0.000324797 0)
(-0.00685985 -0.000338027 0)
(-0.00651026 -0.000349421 0)
(-0.00615011 -0.000358862 0)
(-0.0057814 -0.000366248 0)
(-0.00540623 -0.00037149 0)
(-0.00502679 -0.000374513 0)
(-0.00464532 -0.00037526 0)
(-0.0042641 -0.000373692 0)
(-0.00388546 -0.000369788 0)
(-0.00351174 -0.000363546 0)
(-0.00314524 -0.000354984 0)
(-0.00278826 -0.000344142 0)
(-0.00244304 -0.000331078 0)
(-0.00211175 -0.000315872 0)
(-0.00179646 -0.000298624 0)
(-0.00149914 -0.000279457 0)
(-0.00122163 -0.000258513 0)
(-0.000965584 -0.000235957 0)
(-0.000732504 -0.000211979 0)
(-0.000523674 -0.000186792 0)
(-0.000340145 -0.000160641 0)
(-0.000182705 -0.000133803 0)
(-5.1839e-05 -0.000106599 0)
(5.23139e-05 -7.94042e-05 0)
(0.000130018 -5.26647e-05 0)
(0.000182012 -2.69229e-05 0)
(0.000209599 -2.85104e-06 0)
(0.000214764 1.87025e-05 0)
(0.000200316 3.66547e-05 0)
(0.000170064 4.96243e-05 0)
(0.000128986 5.589e-05 0)
(8.33489e-05 5.34597e-05 0)
(4.05194e-05 4.04935e-05 0)
(8.35268e-06 1.67333e-05 0)
(7.66107e-06 -3.29499e-05 0)
(3.03007e-05 -5.47921e-05 0)
(4.41269e-05 -4.37549e-05 0)
(3.76585e-05 -1.00628e-05 0)
(2.20721e-06 3.81673e-05 0)
(-6.79191e-05 9.49108e-05 0)
(-0.000176057 0.000155835 0)
(-0.000323699 0.000217899 0)
(-0.000510957 0.000279012 0)
(-0.000736938 0.000337768 0)
(-0.00100003 0.000393249 0)
(-0.00129814 0.000444887 0)
(-0.00162885 0.000492361 0)
(-0.00198954 0.000535524 0)
(-0.00237751 0.000574351 0)
(-0.00279001 0.000608902 0)
(-0.00322433 0.000639293 0)
(-0.0036778 0.000665672 0)
(-0.00414784 0.000688212 0)
(-0.00463195 0.000707091 0)
(-0.00512773 0.000722486 0)
(-0.00563288 0.00073457 0)
(-0.00614519 0.000743504 0)
(-0.00666255 0.000749434 0)
(-0.00718293 0.000752492 0)
(-0.00770437 0.000752791 0)
(-0.00822499 0.000750428 0)
(-0.00874295 0.000745483 0)
(-0.00925647 0.000738019 0)
(-0.00976378 0.000728086 0)
(-0.0102632 0.000715718 0)
(-0.010753 0.00070094 0)
(-0.0112315 0.000683767 0)
(-0.011697 0.000664207 0)
(-0.0121479 0.000642262 0)
(-0.0125825 0.000617933 0)
(-0.0129992 0.00059122 0)
(-0.0133963 0.000562129 0)
(-0.0137722 0.000530665 0)
(-0.0141253 0.000496846 0)
(-0.014454 0.000460696 0)
(-0.0147567 0.000422252 0)
(-0.0150319 0.000381566 0)
(-0.0152781 0.000338704 0)
(-0.0154939 0.00029375 0)
(-0.0156778 0.000246807 0)
(-0.0158288 0.000197998 0)
(-0.0159455 0.000147466 0)
(-0.0160268 9.53776e-05 0)
(-0.016072 4.19201e-05 0)
(-0.01608 -1.26965e-05 0)
(-0.0160503 -6.82401e-05 0)
(-0.0159824 -0.000124457 0)
(-0.015876 -0.000181074 0)
(-0.0157309 -0.000237797 0)
(-0.0155472 -0.000294316 0)
(-0.0153252 -0.000350303 0)
(-0.0150654 -0.000405418 0)
(-0.0147686 -0.000459311 0)
(-0.0144358 -0.000511622 0)
(-0.0140681 -0.000561987 0)
(-0.0136671 -0.000610043 0)
(-0.0132344 -0.000655424 0)
(-0.0127719 -0.000697776 0)
(-0.012282 -0.000736751 0)
(-0.0117668 -0.000772017 0)
(-0.0112291 -0.000803258 0)
(-0.0106717 -0.000830183 0)
(-0.0100974 -0.000852523 0)
(-0.0095096 -0.00087004 0)
(-0.00891143 -0.000882531 0)
(-0.00830635 -0.000889825 0)
(-0.00769787 -0.000891792 0)
(-0.00708958 -0.000888343 0)
(-0.0064851 -0.000879433 0)
(-0.00588808 -0.00086506 0)
(-0.00530212 -0.000845271 0)
(-0.00473081 -0.00082016 0)
(-0.00417763 -0.000789867 0)
(-0.00364597 -0.000754585 0)
(-0.00313905 -0.000714554 0)
(-0.00265993 -0.000670063 0)
(-0.00221143 -0.000621456 0)
(-0.00179613 -0.000569128 0)
(-0.00141634 -0.000513531 0)
(-0.00107402 -0.000455179 0)
(-0.000770742 -0.000394652 0)
(-0.000507689 -0.000332616 0)
(-0.000285549 -0.000269828 0)
(-0.000104469 -0.000207169 0)
(3.60253e-05 -0.000145673 0)
(0.000137124 -8.65705e-05 0)
(0.00020085 -3.13526e-05 0)
(0.000230195 1.81547e-05 0)
(0.000229281 5.9699e-05 0)
(0.000203534 9.05109e-05 0)
(0.00015984 0.000107255 0)
(0.000106631 0.000106131 0)
(5.36917e-05 8.332e-05 0)
(1.15757e-05 3.62487e-05 0)
(5.15794e-06 -4.38991e-05 0)
(1.6616e-05 -6.55845e-05 0)
(1.05621e-05 -3.73378e-05 0)
(-2.51823e-05 2.55274e-05 0)
(-9.99999e-05 0.000111012 0)
(-0.000220094 0.000210074 0)
(-0.000389184 0.000316041 0)
(-0.000608976 0.000424083 0)
(-0.000879621 0.00053077 0)
(-0.00120008 0.000633712 0)
(-0.00156846 0.000731293 0)
(-0.00198221 0.000822465 0)
(-0.00243837 0.000906594 0)
(-0.0029337 0.00098335 0)
(-0.00346478 0.00105262 0)
(-0.00402814 0.00111444 0)
(-0.0046203 0.00116897 0)
(-0.0052378 0.00121641 0)
(-0.00587728 0.00125702 0)
(-0.00653546 0.00129109 0)
(-0.00720916 0.00131891 0)
(-0.00789532 0.00134075 0)
(-0.008591 0.00135687 0)
(-0.00929336 0.00136754 0)
(-0.00999964 0.00137295 0)
(-0.0107072 0.00137332 0)
(-0.0114135 0.00136881 0)
(-0.012116 0.00135955 0)
(-0.0128123 0.00134565 0)
(-0.0134999 0.00132722 0)
(-0.0141766 0.00130431 0)
(-0.01484 0.00127697 0)
(-0.0154879 0.00124523 0)
(-0.0161178 0.00120911 0)
(-0.0167277 0.00116864 0)
(-0.0173152 0.00112381 0)
(-0.0178781 0.00107463 0)
(-0.0184142 0.00102113 0)
(-0.0189213 0.000963333 0)
(-0.0193972 0.000901271 0)
(-0.0198398 0.000835003 0)
(-0.020247 0.000764607 0)
(-0.0206168 0.000690184 0)
(-0.0209471 0.000611865 0)
(-0.0212362 0.000529811 0)
(-0.0214822 0.000444215 0)
(-0.0216834 0.000355307 0)
(-0.0218383 0.000263354 0)
(-0.0219455 0.000168659 0)
(-0.0220038 7.15672e-05 0)
(-0.0220121 -2.75404e-05 0)
(-0.0219696 -0.000128243 0)
(-0.0218758 -0.000230082 0)
(-0.0217301 -0.000332564 0)
(-0.0215326 -0.000435163 0)
(-0.0212833 -0.00053732 0)
(-0.0209827 -0.000638452 0)
(-0.0206315 -0.00073795 0)
(-0.0202308 -0.000835189 0)
(-0.0197818 -0.00092953 0)
(-0.0192863 -0.00102033 0)
(-0.0187462 -0.00110693 0)
(-0.0181638 -0.00118869 0)
(-0.0175417 -0.00126499 0)
(-0.0168828 -0.00133521 0)
(-0.0161902 -0.00139875 0)
(-0.0154674 -0.00145507 0)
(-0.0147182 -0.00150365 0)
(-0.0139464 -0.00154401 0)
(-0.0131564 -0.00157574 0)
(-0.0123523 -0.00159848 0)
(-0.0115388 -0.00161192 0)
(-0.0107205 -0.00161585 0)
(-0.009902 -0.00161011 0)
(-0.00908822 -0.00159462 0)
(-0.00828391 -0.00156938 0)
(-0.00749384 -0.00153449 0)
(-0.00672271 -0.00149011 0)
(-0.00597512 -0.00143651 0)
(-0.0052555 -0.00137402 0)
(-0.0045681 -0.0013031 0)
(-0.00391691 -0.00122426 0)
(-0.00330565 -0.00113812 0)
(-0.0027377 -0.00104542 0)
(-0.00221602 -0.000946954 0)
(-0.00174318 -0.000843671 0)
(-0.00132121 -0.000736619 0)
(-0.000951617 -0.000626994 0)
(-0.000635252 -0.000516158 0)
(-0.000372273 -0.000405672 0)
(-0.000162036 -0.00029735 0)
(-2.99834e-06 -0.000193314 0)
(0.000107408 -9.60831e-05 0)
(0.000172911 -8.66755e-06 0)
(0.000198547 6.53171e-05 0)
(0.000190819 0.000121543 0)
(0.000157835 0.000154904 0)
(0.000109385 0.000159581 0)
(5.68334e-05 0.000129341 0)
(1.25635e-05 5.83151e-05 0)
(1.03463e-06 -4.80047e-05 0)
(-4.52096e-06 -5.77767e-05 0)
(-3.82221e-05 -1.70349e-06 0)
(-0.00011194 0.000100501 0)
(-0.000234902 0.000233281 0)
(-0.000413157 0.00038472 0)
(-0.000650326 0.000545828 0)
(-0.000948025 0.000709939 0)
(-0.00130627 0.000872189 0)
(-0.00172382 0.0010291 0)
(-0.00219849 0.00117824 0)
(-0.00272737 0.00131799 0)
(-0.00330706 0.00144731 0)
(-0.00393378 0.00156563 0)
(-0.00460358 0.00167268 0)
(-0.00531235 0.00176846 0)
(-0.00605598 0.00185311 0)
(-0.00683035 0.00192689 0)
(-0.00763143 0.00199016 0)
(-0.00845524 0.0020433 0)
(-0.00929793 0.0020867 0)
(-0.0101558 0.00212076 0)
(-0.0110252 0.00214586 0)
(-0.0119026 0.00216237 0)
(-0.0127846 0.00217059 0)
(-0.013668 0.00217083 0)
(-0.0145495 0.00216333 0)
(-0.015426 0.00214829 0)
(-0.0162946 0.00212589 0)
(-0.0171521 0.00209627 0)
(-0.0179956 0.00205954 0)
(-0.0188223 0.00201576 0)
(-0.0196292 0.00196501 0)
(-0.0204135 0.00190732 0)
(-0.0211725 0.00184272 0)
(-0.0219032 0.00177124 0)
(-0.022603 0.00169291 0)
(-0.023269 0.00160776 0)
(-0.0238985 0.00151586 0)
(-0.024489 0.00141728 0)
(-0.0250377 0.00131212 0)
(-0.025542 0.00120051 0)
(-0.0259995 0.00108263 0)
(-0.0264078 0.000958695 0)
(-0.0267645 0.000828972 0)
(-0.0270676 0.000693774 0)
(-0.0273149 0.00055347 0)
(-0.0275047 0.000408488 0)
(-0.0276352 0.00025931 0)
(-0.027705 0.000106481 0)
(-0.0277128 -4.93983e-05 0)
(-0.0276578 -0.000207666 0)
(-0.0275391 -0.000367606 0)
(-0.0273564 -0.000528447 0)
(-0.0271096 -0.000689368 0)
(-0.0267989 -0.000849502 0)
(-0.0264248 -0.00100794 0)
(-0.0259884 -0.00116375 0)
(-0.025491 -0.00131595 0)
(-0.0249341 -0.00146356 0)
(-0.0243198 -0.00160558 0)
(-0.0236507 -0.00174101 0)
(-0.0229294 -0.00186886 0)
(-0.0221592 -0.00198816 0)
(-0.0213437 -0.00209797 0)
(-0.0204867 -0.00219737 0)
(-0.0195924 -0.00228553 0)
(-0.0186654 -0.00236164 0)
(-0.0177105 -0.00242498 0)
(-0.0167329 -0.00247491 0)
(-0.0157377 -0.00251088 0)
(-0.0147305 -0.00253245 0)
(-0.0137169 -0.00253925 0)
(-0.0127026 -0.00253107 0)
(-0.0116935 -0.00250778 0)
(-0.0106955 -0.0024694 0)
(-0.00971416 -0.00241608 0)
(-0.00875533 -0.00234808 0)
(-0.00782455 -0.0022658 0)
(-0.00692721 -0.00216981 0)
(-0.00606844 -0.00206078 0)
(-0.00525308 -0.00193955 0)
(-0.00448563 -0.00180709 0)
(-0.00377014 -0.00166452 0)
(-0.00311022 -0.00151313 0)
(-0.00250894 -0.00135439 0)
(-0.00196875 -0.00118992 0)
(-0.00149144 -0.00102161 0)
(-0.00107803 -0.000851535 0)
(-0.000728722 -0.000682101 0)
(-0.000442771 -0.000516047 0)
(-0.000218399 -0.000356544 0)
(-5.26719e-05 -0.00020728 0)
(5.86233e-05 -7.25833e-05 0)
(0.000121112 4.24576e-05 0)
(0.000141969 0.000131867 0)
(0.000130043 0.000188685 0)
(9.59453e-05 0.000204953 0)
(5.20321e-05 0.000171804 0)
(1.17957e-05 7.97927e-05 0)
(-4.03651e-06 -4.32558e-05 0)
(-3.02116e-05 -2.66477e-05 0)
(-9.67015e-05 6.95034e-05 0)
(-0.000214439 0.000221981 0)
(-0.000391902 0.000412193 0)
(-0.000634472 0.000625651 0)
(-0.000945277 0.000851216 0)
(-0.00132555 0.00108045 0)
(-0.00177497 0.00130708 0)
(-0.00229201 0.00152649 0)
(-0.00287413 0.00173541 0)
(-0.00351808 0.00193157 0)
(-0.00422004 0.00211349 0)
(-0.0049758 0.00228029 0)
(-0.00578092 0.00243151 0)
(-0.00663078 0.00256706 0)
(-0.00752071 0.00268706 0)
(-0.00844604 0.00279182 0)
(-0.00940213 0.00288174 0)
(-0.0103844 0.00295731 0)
(-0.0113885 0.00301904 0)
(-0.01241 0.00306744 0)
(-0.0134447 0.00310301 0)
(-0.0144885 0.00312622 0)
(-0.0155374 0.00313752 0)
(-0.0165875 0.00313728 0)
(-0.0176351 0.00312585 0)
(-0.0186764 0.00310351 0)
(-0.0197079 0.0030705 0)
(-0.0207259 0.00302702 0)
(-0.0217271 0.00297321 0)
(-0.0227078 0.0029092 0)
(-0.0236648 0.00283508 0)
(-0.0245946 0.00275092 0)
(-0.025494 0.00265677 0)
(-0.0263595 0.00255269 0)
(-0.0271879 0.00243873 0)
(-0.0279759 0.00231498 0)
(-0.0287204 0.00218151 0)
(-0.0294182 0.00203847 0)
(-0.0300662 0.00188601 0)
(-0.0306614 0.00172435 0)
(-0.031201 0.00155375 0)
(-0.031682 0.00137454 0)
(-0.0321018 0.00118711 0)
(-0.032458 0.000991931 0)
(-0.0327482 0.000789546 0)
(-0.0329702 0.000580573 0)
(-0.0331222 0.000365714 0)
(-0.0332025 0.000145755 0)
(-0.0332096 -7.84377e-05 0)
(-0.0331426 -0.000305916 0)
(-0.0330005 -0.000535655 0)
(-0.0327831 -0.000766553 0)
(-0.0324902 -0.000997439 0)
(-0.0321221 -0.00122708 0)
(-0.0316796 -0.00145419 0)
(-0.0311638 -0.00167744 0)
(-0.0305762 -0.00189544 0)
(-0.0299189 -0.00210681 0)
(-0.0291942 -0.00231014 0)
(-0.0284049 -0.002504 0)
(-0.0275545 -0.00268702 0)
(-0.0266466 -0.00285781 0)
(-0.0256854 -0.00301504 0)
(-0.0246753 -0.00315745 0)
(-0.0236213 -0.00328383 0)
(-0.0225287 -0.00339307 0)
(-0.0214031 -0.00348415 0)
(-0.0202503 -0.00355618 0)
(-0.0190766 -0.00360838 0)
(-0.0178882 -0.00364012 0)
(-0.0166918 -0.00365092 0)
(-0.0154939 -0.00364044 0)
(-0.0143012 -0.00360855 0)
(-0.0131206 -0.00355526 0)
(-0.0119588 -0.00348078 0)
(-0.0108222 -0.00338551 0)
(-0.00971743 -0.00327003 0)
(-0.00865065 -0.00313513 0)
(-0.00762781 -0.00298178 0)
(-0.00665451 -0.00281118 0)
(-0.00573594 -0.00262472 0)
(-0.0048768 -0.00242402 0)
(-0.00408126 -0.00221091 0)
(-0.00335284 -0.00198746 0)
(-0.0026944 -0.00175602 0)
(-0.00210801 -0.00151922 0)
(-0.00159489 -0.00128001 0)
(-0.00115532 -0.00104173 0)
(-0.000788535 -0.000808164 0)
(-0.000492648 -0.00058364 0)
(-0.000264523 -0.000373115 0)
(-9.96743e-05 -0.000182308 0)
(7.85006e-06 -1.78373e-05 0)
(6.55865e-05 0.000112638 0)
(8.27731e-05 0.000200281 0)
(7.04333e-05 0.000234975 0)
(4.1438e-05 0.000205231 0)
(9.79177e-06 9.82317e-05 0)
(-9.61775e-06 -2.84781e-05 0)
(-5.84916e-05 3.08197e-05 0)
(-0.000161008 0.000180582 0)
(-0.000326803 0.000394986 0)
(-0.000563208 0.000652995 0)
(-0.00087456 0.000937941 0)
(-0.00126317 0.00123679 0)
(-0.00172964 0.00153948 0)
(-0.00227314 0.00183841 0)
(-0.00289168 0.00212788 0)
(-0.00358235 0.00240377 0)
(-0.00434149 0.00266315 0)
(-0.00516489 0.00290407 0)
(-0.00604793 0.00312531 0)
(-0.00698572 0.0033262 0)
(-0.0079732 0.00350653 0)
(-0.00900521 0.00366639 0)
(-0.0100766 0.00380609 0)
(-0.0111822 0.00392609 0)
(-0.012317 0.00402697 0)
(-0.0134759 0.00410933 0)
(-0.0146541 0.00417381 0)
(-0.0158468 0.00422103 0)
(-0.0170495 0.00425158 0)
(-0.0182575 0.00426601 0)
(-0.0194664 0.0042648 0)
(-0.020672 0.0042484 0)
(-0.02187 0.00421716 0)
(-0.0230563 0.00417141 0)
(-0.0242267 0.00411139 0)
(-0.0253773 0.00403733 0)
(-0.0265042 0.00394937 0)
(-0.0276033 0.00384765 0)
(-0.0286708 0.00373228 0)
(-0.029703 0.00360334 0)
(-0.0306959 0.00346093 0)
(-0.0316459 0.00330515 0)
(-0.0325492 0.0031361 0)
(-0.0334021 0.00295394 0)
(-0.0342012 0.00275886 0)
(-0.0349429 0.00255111 0)
(-0.0356238 0.00233099 0)
(-0.0362406 0.00209888 0)
(-0.0367902 0.00185524 0)
(-0.0372695 0.00160062 0)
(-0.0376757 0.00133567 0)
(-0.0380063 0.00106113 0)
(-0.0382588 0.00077785 0)
(-0.0384311 0.000486783 0)
(-0.0385214 0.000188997 0)
(-0.0385281 -0.000114336 0)
(-0.03845 -0.000421939 0)
(-0.0382864 -0.00073243 0)
(-0.0380367 -0.00104433 0)
(-0.037701 -0.00135607 0)
(-0.0372796 -0.00166601 0)
(-0.0367734 -0.00197241 0)
(-0.0361836 -0.0022735 0)
(-0.0355121 -0.00256746 0)
(-0.0347612 -0.00285241 0)
(-0.0339335 -0.00312648 0)
(-0.0330323 -0.0033878 0)
(-0.0320613 -0.0036345 0)
(-0.0310248 -0.00386477 0)
(-0.0299275 -0.00407685 0)
(-0.0287743 -0.00426904 0)
(-0.0275709 -0.00443975 0)
(-0.0263231 -0.00458751 0)
(-0.0250374 -0.00471098 0)
(-0.0237203 -0.00480895 0)
(-0.0223787 -0.00488041 0)
(-0.0210197 -0.00492451 0)
(-0.0196507 -0.00494064 0)
(-0.0182793 -0.00492835 0)
(-0.0169128 -0.00488745 0)
(-0.0155589 -0.00481798 0)
(-0.0142252 -0.00472023 0)
(-0.0129189 -0.00459472 0)
(-0.0116475 -0.00444225 0)
(-0.0104178 -0.00426386 0)
(-0.0092366 -0.00406089 0)
(-0.00811013 -0.00383493 0)
(-0.00704423 -0.00358785 0)
(-0.00604421 -0.00332181 0)
(-0.00511474 -0.00303927 0)
(-0.00425983 -0.00274302 0)
(-0.00348269 -0.00243616 0)
(-0.00278572 -0.00212218 0)
(-0.00217034 -0.001805 0)
(-0.00163698 -0.00148897 0)
(-0.00118496 -0.00117902 0)
(-0.000812375 -0.000880684 0)
(-0.000516045 -0.000600258 0)
(-0.000291387 -0.000344893 0)
(-0.000132332 -0.000122755 0)
(-3.12248e-05 5.68162e-05 0)
(2.12839e-05 0.00018314 0)
(3.63035e-05 0.000244018 0)
(2.68389e-05 0.00022552 0)
(6.96341e-06 0.000111903 0)
(-1.54349e-05 -3.06064e-06 0)
(-8.80745e-05 0.000116402 0)
(-0.000228501 0.000334255 0)
(-0.000444888 0.000622859 0)
(-0.00074318 0.000959321 0)
(-0.0011264 0.00132521 0)
(-0.00159581 0.00170588 0)
(-0.00215115 0.00208989 0)
(-0.00279091 0.00246841 0)
(-0.00351256 0.00283476 0)
(-0.00431267 0.003184 0)
(-0.00518715 0.00351257 0)
(-0.00613137 0.00381806 0)
(-0.00714031 0.00409889 0)
(-0.00820865 0.00435418 0)
(-0.00933092 0.00458359 0)
(-0.0105015 0.00478713 0)
(-0.0117149 0.00496512 0)
(-0.0129654 0.00511809 0)
(-0.0142474 0.00524666 0)
(-0.0155557 0.00535155 0)
(-0.0168847 0.0054335 0)
(-0.0182292 0.00549326 0)
(-0.0195842 0.00553151 0)
(-0.0209446 0.00554894 0)
(-0.0223054 0.00554612 0)
(-0.023662 0.00552359 0)
(-0.0250096 0.00548181 0)
(-0.0263435 0.00542116 0)
(-0.0276592 0.00534197 0)
(-0.0289522 0.0052445 0)
(-0.0302181 0.00512898 0)
(-0.0314525 0.00499556 0)
(-0.032651 0.00484441 0)
(-0.0338094 0.00467565 0)
(-0.0349235 0.00448942 0)
(-0.035989 0.00428586 0)
(-0.0370018 0.00406516 0)
(-0.0379578 0.00382751 0)
(-0.0388531 0.0035732 0)
(-0.0396838 0.00330257 0)
(-0.0404461 0.00301602 0)
(-0.0411364 0.00271409 0)
(-0.0417512 0.00239738 0)
(-0.0422872 0.00206661 0)
(-0.0427412 0.00172265 0)
(-0.0431105 0.00136647 0)
(-0.0433924 0.000999169 0)
(-0.0435845 0.000621999 0)
(-0.0436849 0.000236336 0)
(-0.043692 -0.000156304 0)
(-0.0436043 -0.000554273 0)
(-0.0434212 -0.000955793 0)
(-0.043142 -0.00135897 0)
(-0.0427668 -0.00176178 0)
(-0.042296 -0.00216213 0)
(-0.0417307 -0.0025578 0)
(-0.0410722 -0.00294652 0)
(-0.0403226 -0.00332596 0)
(-0.0394843 -0.00369374 0)
(-0.0385605 -0.00404746 0)
(-0.0375547 -0.00438476 0)
(-0.0364709 -0.00470324 0)
(-0.0353139 -0.00500061 0)
(-0.0340889 -0.00527461 0)
(-0.0328013 -0.00552309 0)
(-0.0314573 -0.00574405 0)
(-0.0300635 -0.00593558 0)
(-0.0286267 -0.006096 0)
(-0.0271542 -0.00622378 0)
(-0.0256537 -0.00631763 0)
(-0.024133 -0.00637647 0)
(-0.0226001 -0.00639952 0)
(-0.0210633 -0.00638622 0)
(-0.0195309 -0.00633633 0)
(-0.0180112 -0.0062499 0)
(-0.0165125 -0.0061273 0)
(-0.0150429 -0.00596922 0)
(-0.0136105 -0.00577667 0)
(-0.012223 -0.005551 0)
(-0.0108876 -0.00529391 0)
(-0.00961146 -0.00500744 0)
(-0.00840088 -0.00469399 0)
(-0.00726175 -0.00435634 0)
(-0.00619927 -0.00399763 0)
(-0.0052179 -0.00362139 0)
(-0.00432125 -0.0032316 0)
(-0.00351202 -0.00283267 0)
(-0.00279193 -0.00242952 0)
(-0.00216161 -0.00202762 0)
(-0.00162052 -0.00163307 0)
(-0.00116687 -0.00125269 0)
(-0.000797549 -0.000894134 0)
(-0.000508034 -0.000565994 0)
(-0.000292309 -0.000277983 0)
(-0.000142792 -4.10823e-05 0)
(-5.02476e-05 0.000132256 0)
(-3.7362e-06 0.000227895 0)
(9.59902e-06 0.000229746 0)
(3.61194e-06 0.000119655 0)
(-2.13198e-05 3.32469e-05 0)
(-0.000118137 0.000231016 0)
(-0.000297413 0.000532089 0)
(-0.00056582 0.00090767 0)
(-0.000927787 0.00133353 0)
(-0.00138486 0.0017899 0)
(-0.00193706 0.00226084 0)
(-0.00258311 0.00273372 0)
(-0.00332068 0.00319869 0)
(-0.00414654 0.00364819 0)
(-0.00505672 0.00407654 0)
(-0.0060466 0.00447963 0)
(-0.00711111 0.00485457 0)
(-0.00824479 0.00519947 0)
(-0.00944193 0.00551324 0)
(-0.0106966 0.00579538 0)
(-0.0120029 0.00604585 0)
(-0.0133548 0.00626497 0)
(-0.0147462 0.00645328 0)
(-0.0161713 0.0066115 0)
(-0.017624 0.00674043 0)
(-0.0190987 0.00684091 0)
(-0.0205897 0.00691379 0)
(-0.0220913 0.0069599 0)
(-0.0235982 0.00697999 0)
(-0.0251051 0.00697478 0)
(-0.0266065 0.00694488 0)
(-0.0280975 0.00689085 0)
(-0.0295728 0.00681315 0)
(-0.0310276 0.00671216 0)
(-0.0324569 0.00658823 0)
(-0.0338559 0.00644161 0)
(-0.0352196 0.00627253 0)
(-0.0365434 0.0060812 0)
(-0.0378225 0.00586779 0)
(-0.0390523 0.00563248 0)
(-0.0402282 0.00537549 0)
(-0.0413457 0.00509706 0)
(-0.0424004 0.00479747 0)
(-0.0433878 0.0044771 0)
(-0.0443037 0.00413638 0)
(-0.0451441 0.00377588 0)
(-0.045905 0.00339625 0)
(-0.0465825 0.00299829 0)
(-0.0471732 0.00258293 0)
(-0.0476735 0.00215125 0)
(-0.0480805 0.00170448 0)
(-0.0483913 0.00124402 0)
(-0.0486034 0.000771417 0)
(-0.0487147 0.000288412 0)
(-0.0487233 -0.000203108 0)
(-0.0486279 -0.000701089 0)
(-0.0484275 -0.00120332 0)
(-0.0481217 -0.00170745 0)
(-0.0477105 -0.00221097 0)
(-0.0471944 -0.00271128 0)
(-0.0465745 -0.00320565 0)
(-0.0458523 -0.00369126 0)
(-0.04503 -0.00416523 0)
(-0.0441103 -0.00462462 0)
(-0.0430967 -0.0050665 0)
(-0.0419928 -0.00548791 0)
(-0.0408033 -0.00588593 0)
(-0.039533 -0.00625771 0)
(-0.0381876 -0.00660049 0)
(-0.0367732 -0.00691162 0)
(-0.0352964 -0.00718861 0)
(-0.0337641 -0.00742914 0)
(-0.032184 -0.0076311 0)
(-0.0305638 -0.00779264 0)
(-0.0289119 -0.00791215 0)
(-0.0272366 -0.00798832 0)
(-0.0255468 -0.00802016 0)
(-0.0238514 -0.008007 0)
(-0.0221593 -0.00794854 0)
(-0.0204797 -0.00784484 0)
(-0.0188214 -0.00769636 0)
(-0.0171934 -0.00750394 0)
(-0.0156043 -0.00726885 0)
(-0.0140624 -0.00699275 0)
(-0.012576 -0.00667775 0)
(-0.0111524 -0.00632637 0)
(-0.00979871 -0.00594159 0)
(-0.00852137 -0.00552681 0)
(-0.00732608 -0.00508594 0)
(-0.00621775 -0.00462332 0)
(-0.0052004 -0.00414382 0)
(-0.00427711 -0.00365284 0)
(-0.0034499 -0.00315637 0)
(-0.00271968 -0.00266104 0)
(-0.00208614 -0.00217416 0)
(-0.00154769 -0.00170387 0)
(-0.00110142 -0.00125918 0)
(-0.000742963 -0.000850139 0)
(-0.000466512 -0.000487977 0)
(-0.000264715 -0.000185258 0)
(-0.00012862 4.39007e-05 0)
(-4.76511e-05 0.000183607 0)
(-9.28715e-06 0.000215914 0)
(-5.03066e-08 0.00012076 0)
(-2.71714e-05 8.04699e-05 0)
(-0.000148162 0.000374993 0)
(-0.000366581 0.000774823 0)
(-0.000687634 0.00125053 0)
(-0.00111419 0.00177701 0)
(-0.00164622 0.00233351 0)
(-0.00228238 0.00290312 0)
(-0.00302025 0.00347227 0)
(-0.00385658 0.00403028 0)
(-0.00478735 0.00456882 0)
(-0.00580791 0.00508161 0)
(-0.0069131 0.00556403 0)
(-0.00809733 0.00601278 0)
(-0.00935472 0.00642569 0)
(-0.0106791 0.00680146 0)
(-0.0120642 0.00713947 0)
(-0.0135037 0.00743962 0)
(-0.0149912 0.00770221 0)
(-0.0165202 0.00792783 0)
(-0.0180844 0.00811726 0)
(-0.0196776 0.00827138 0)
(-0.0212936 0.00839114 0)
(-0.0229264 0.0084775 0)
(-0.0245699 0.00853138 0)
(-0.0262183 0.00855367 0)
(-0.0278658 0.00854515 0)
(-0.0295069 0.00850657 0)
(-0.0311359 0.00843854 0)
(-0.0327474 0.00834161 0)
(-0.034336 0.00821625 0)
(-0.0358963 0.00806284 0)
(-0.0374231 0.00788172 0)
(-0.0389111 0.00767316 0)
(-0.0403553 0.00743742 0)
(-0.0417504 0.00717473 0)
(-0.0430916 0.00688534 0)
(-0.0443737 0.00656953 0)
(-0.045592 0.00622759 0)
(-0.0467417 0.00585993 0)
(-0.0478179 0.00546701 0)
(-0.0488163 0.00504941 0)
(-0.0497322 0.00460781 0)
(-0.0505616 0.00414306 0)
(-0.0513002 0.00365613 0)
(-0.0519443 0.00314819 0)
(-0.0524902 0.00262056 0)
(-0.0529347 0.00207475 0)
(-0.0532746 0.00151248 0)
(-0.0535074 0.000935653 0)
(-0.0536306 0.000346363 0)
(-0.0536425 -0.000253087 0)
(-0.0535415 -0.000860207 0)
(-0.0533266 -0.00147232 0)
(-0.0529973 -0.00208657 0)
(-0.0525537 -0.00269996 0)
(-0.0519963 -0.00330932 0)
(-0.0513262 -0.00391136 0)
(-0.0505451 -0.00450269 0)
(-0.0496554 -0.00507985 0)
(-0.0486599 -0.0056393 0)
(-0.0475622 -0.0061775 0)
(-0.0463664 -0.0066909 0)
(-0.0450773 -0.00717598 0)
(-0.0437002 -0.00762933 0)
(-0.0422411 -0.00804762 0)
(-0.0407065 -0.00842766 0)
(-0.0391034 -0.00876645 0)
(-0.0374393 -0.00906121 0)
(-0.0357223 -0.00930941 0)
(-0.0339608 -0.0095088 0)
(-0.0321635 -0.00965745 0)
(-0.0303397 -0.00975378 0)
(-0.0284986 -0.00979659 0)
(-0.0266498 -0.00978507 0)
(-0.024803 -0.00971886 0)
(-0.0229678 -0.00959803 0)
(-0.0211539 -0.00942312 0)
(-0.0193708 -0.00919514 0)
(-0.017628 -0.00891561 0)
(-0.0159343 -0.00858653 0)
(-0.0142986 -0.00821044 0)
(-0.0127288 -0.00779038 0)
(-0.0112327 -0.0073299 0)
(-0.00981731 -0.00683314 0)
(-0.00848874 -0.00630473 0)
(-0.00725243 -0.0057499 0)
(-0.00611286 -0.00517448 0)
(-0.00507351 -0.00458488 0)
(-0.00413678 -0.00398821 0)
(-0.00330389 -0.00339227 0)
(-0.00257486 -0.00280563 0)
(-0.00194838 -0.00223776 0)
(-0.00142181 -0.00169904 0)
(-0.000991091 -0.00120096 0)
(-0.000650712 -0.000756209 0)
(-0.000393679 -0.000378879 0)
(-0.000211458 -8.46308e-05 0)
(-9.39632e-05 0.000109075 0)
(-2.91184e-05 0.000182731 0)
(-3.87781e-06 0.000114796 0)
(-3.29311e-05 0.000138497 0)
(-0.000177836 0.000548281 0)
(-0.000435255 0.00106262 0)
(-0.00080901 0.00165184 0)
(-0.00130042 0.00229035 0)
(-0.00190782 0.00295678 0)
(-0.00262846 0.0036335 0)
(-0.00345868 0.00430626 0)
(-0.00439419 0.0049637 0)
(-0.0054301 0.00559694 0)
(-0.00656106 0.00619917 0)
(-0.00778127 0.00676534 0)
(-0.0090846 0.00729185 0)
(-0.0104647 0.00777628 0)
(-0.011915 0.00821714 0)
(-0.0134287 0.00861371 0)
(-0.0149992 0.00896586 0)
(-0.0166197 0.00927389 0)
(-0.0182834 0.00953841 0)
(-0.0199836 0.00976027 0)
(-0.0217137 0.00994045 0)
(-0.0234672 0.01008 0)
(-0.0252377 0.0101799 0)
(-0.0270188 0.0102413 0)
(-0.0288044 0.0102652 0)
(-0.0305882 0.0102524 0)
(-0.0323644 0.0102037 0)
(-0.0341269 0.0101199 0)
(-0.03587 0.0100016 0)
(-0.0375878 0.00984931 0)
(-0.0392747 0.00966352 0)
(-0.0409249 0.00944459 0)
(-0.0425331 0.00919288 0)
(-0.0440935 0.00890869 0)
(-0.0456009 0.00859231 0)
(-0.0470497 0.00824406 0)
(-0.0484348 0.00786429 0)
(-0.0497508 0.00745339 0)
(-0.0509926 0.00701185 0)
(-0.0521552 0.00654025 0)
(-0.0532338 0.0060393 0)
(-0.0542236 0.00550987 0)
(-0.0551201 0.00495296 0)
(-0.0559189 0.00436977 0)
(-0.056616 0.00376169 0)
(-0.0572074 0.00313034 0)
(-0.0576896 0.00247751 0)
(-0.0580595 0.00180526 0)
(-0.0583142 0.00111586 0)
(-0.0584511 0.000411803 0)
(-0.0584683 -0.000304168 0)
(-0.0583643 -0.0010291 0)
(-0.0581379 -0.00175982 0)
(-0.0577885 -0.00249296 0)
(-0.0573162 -0.00322494 0)
(-0.0567216 -0.00395205 0)
(-0.0560058 -0.00467039 0)
(-0.0551706 -0.00537596 0)
(-0.0542185 -0.00606467 0)
(-0.0531524 -0.00673235 0)
(-0.0519761 -0.00737483 0)
(-0.050694 -0.00798791 0)
(-0.0493111 -0.00856746 0)
(-0.047833 -0.00910943 0)
(-0.046266 -0.0096099 0)
(-0.0446169 -0.0100651 0)