/*--------------------------------*- C++ -*----------------------------------*\
| =========                 |                                                 |
| \\      /  F ield         | OpenFOAM: The Open Source CFD Toolbox           |
|  \\    /   O peration     | Version:  4.1                                   |
|   \\  /    A nd           | Web:      www.OpenFOAM.org                      |
|    \\/     M anipulation  |                                                 |
\*---------------------------------------------------------------------------*/
FoamFile
{
    version     2.0;
    format      ascii;
    class       volVectorField;
    location    "7.5";
    object      U;
}
// * * * * * * * * * * * * * * * * * * * * * * * * * * * * * * * * * * * * * //

dimensions      [0 1 -1 0 0 0 0];

internalField   nonuniform List<vector> 
10000
(
(4.82824e-06 -4.82661e-06 0)
(2.05494e-05 -8.62821e-06 0)
(3.74296e-05 -8.91133e-06 0)
(5.05816e-05 -6.33349e-06 0)
(5.64826e-05 -1.95813e-06 0)
(5.2956e-05 3.41804e-06 0)
(3.88513e-05 9.25505e-06 0)
(1.37368e-05 1.51998e-05 0)
(-2.23382e-05 2.10254e-05 0)
(-6.90105e-05 2.65894e-05 0)
(-0.000125719 3.18059e-05 0)
(-0.000191782 3.66263e-05 0)
(-0.000266453 4.10275e-05 0)
(-0.000348959 4.50035e-05 0)
(-0.000438521 4.85592e-05 0)
(-0.000534373 5.17071e-05 0)
(-0.000635776 5.44639e-05 0)
(-0.00074202 5.68489e-05 0)
(-0.000852428 5.88825e-05 0)
(-0.000966363 6.05851e-05 0)
(-0.00108322 6.19762e-05 0)
(-0.00120243 6.30744e-05 0)
(-0.00132345 6.38962e-05 0)
(-0.00144577 6.44567e-05 0)
(-0.00156892 6.47688e-05 0)
(-0.00169242 6.48434e-05 0)
(-0.00181583 6.46895e-05 0)
(-0.00193872 6.43141e-05 0)
(-0.00206067 6.37226e-05 0)
(-0.00218128 6.29186e-05 0)
(-0.00230013 6.19045e-05 0)
(-0.00241683 6.06812e-05 0)
(-0.00253098 5.9249e-05 0)
(-0.00264218 5.76071e-05 0)
(-0.00275002 5.57546e-05 0)
(-0.00285411 5.36901e-05 0)
(-0.00295404 5.14124e-05 0)
(-0.00304941 4.89204e-05 0)
(-0.0031398 4.62139e-05 0)
(-0.00322482 4.3293e-05 0)
(-0.00330407 4.0159e-05 0)
(-0.00337713 3.68145e-05 0)
(-0.00344362 3.32634e-05 0)
(-0.00350316 2.95112e-05 0)
(-0.00355537 2.5565e-05 0)
(-0.0035999 2.14339e-05 0)
(-0.00363643 1.7129e-05 0)
(-0.00366462 1.26633e-05 0)
(-0.00368421 8.05218e-06 0)
(-0.00369494 3.313e-06 0)
(-0.00369658 -1.53472e-06 0)
(-0.00368897 -6.46925e-06 0)
(-0.00367196 -1.14668e-05 0)
(-0.00364546 -1.65018e-05 0)
(-0.00360944 -2.15465e-05 0)
(-0.0035639 -2.65717e-05 0)
(-0.00350893 -3.15467e-05 0)
(-0.00344464 -3.64395e-05 0)
(-0.00337122 -4.12171e-05 0)
(-0.00328894 -4.5846e-05 0)
(-0.00319809 -5.02921e-05 0)
(-0.00309907 -5.45212e-05 0)
(-0.0029923 -5.84997e-05 0)
(-0.00287831 -6.21944e-05 0)
(-0.00275764 -6.55734e-05 0)
(-0.00263092 -6.86062e-05 0)
(-0.00249883 -7.12638e-05 0)
(-0.0023621 -7.352e-05 0)
(-0.0022215 -7.53507e-05 0)
(-0.00207785 -7.6735e-05 0)
(-0.00193201 -7.76549e-05 0)
(-0.00178485 -7.80963e-05 0)
(-0.00163729 -7.80485e-05 0)
(-0.00149023 -7.7505e-05 0)
(-0.00134463 -7.64633e-05 0)
(-0.0012014 -7.49251e-05 0)
(-0.00106147 -7.28967e-05 0)
(-0.000925751 -7.03885e-05 0)
(-0.000795123 -6.74155e-05 0)
(-0.000670441 -6.39969e-05 0)
(-0.000552515 -6.01564e-05 0)
(-0.00044211 -5.59221e-05 0)
(-0.000339931 -5.13266e-05 0)
(-0.00024662 -4.6407e-05 0)
(-0.000162745 -4.12052e-05 0)
(-8.87875e-05 -3.57684e-05 0)
(-2.51371e-05 -3.015e-05 0)
(2.79238e-05 -2.44105e-05 0)
(7.02339e-05 -1.86198e-05 0)
(0.000101772 -1.28593e-05 0)
(0.000122681 -7.22684e-06 0)
(0.000133301 -1.84205e-06 0)
(0.000134213 3.14487e-06 0)
(0.0001263 7.54113e-06 0)
(0.000110827 1.10955e-05 0)
(8.95498e-05 1.34788e-05 0)
(6.48327e-05 1.4268e-05 0)
(3.97571e-05 1.29588e-05 0)
(1.8006e-05 9.14491e-06 0)
(3.42217e-06 3.41695e-06 0)
(8.66794e-06 -2.05617e-05 0)
(3.74472e-05 -3.73223e-05 0)
(6.45497e-05 -3.59906e-05 0)
(7.96808e-05 -2.18245e-05 0)
(7.51556e-05 5.45959e-07 0)
(4.59835e-05 2.76636e-05 0)
(-1.07029e-05 5.70892e-05 0)
(-9.61694e-05 8.71587e-05 0)
(-0.000210529 0.000116761 0)
(-0.000353086 0.000145171 0)
(-0.000522594 0.000171933 0)
(-0.000717447 0.000196773 0)
(-0.000935811 0.000219549 0)
(-0.00117573 0.000240203 0)
(-0.0014352 0.000258741 0)
(-0.00171221 0.000275205 0)
(-0.00200477 0.000289667 0)
(-0.00231097 0.000302212 0)
(-0.00262896 0.000312933 0)
(-0.00295697 0.000321926 0)
(-0.00329329 0.000329284 0)
(-0.00363633 0.000335097 0)
(-0.00398453 0.000339446 0)
(-0.00433645 0.000342405 0)
(-0.00469068 0.000344038 0)
(-0.00504586 0.000344399 0)
(-0.00540071 0.000343536 0)
(-0.00575396 0.000341483 0)
(-0.00610439 0.000338269 0)
(-0.00645079 0.000333913 0)
(-0.00679198 0.000328429 0)
(-0.00712678 0.000321824 0)
(-0.00745403 0.0003141 0)
(-0.00777256 0.000305257 0)
(-0.00808121 0.000295291 0)
(-0.00837882 0.000284198 0)
(-0.00866423 0.000271975 0)
(-0.00893628 0.00025862 0)
(-0.00919381 0.000244132 0)
(-0.00943567 0.000228518 0)
(-0.00966073 0.000211786 0)
(-0.00986786 0.000193953 0)
(-0.010056 0.000175043 0)
(-0.010224 0.000155086 0)
(-0.0103709 0.000134124 0)
(-0.0104957 0.000112206 0)
(-0.0105976 8.93924e-05 0)
(-0.0106756 6.57538e-05 0)
(-0.0107289 4.1372e-05 0)
(-0.010757 1.63393e-05 0)
(-0.0107593 -9.24067e-06 0)
(-0.0107351 -3.52535e-05 0)
(-0.0106844 -6.15745e-05 0)
(-0.0106067 -8.8069e-05 0)
(-0.0105021 -0.000114593 0)
(-0.0103706 -0.000140994 0)
(-0.0102125 -0.000167112 0)
(-0.0100281 -0.000192782 0)
(-0.00981803 -0.000217833 0)
(-0.00958302 -0.00024209 0)
(-0.00932396 -0.000265378 0)
(-0.00904194 -0.000287522 0)
(-0.00873821 -0.000308346 0)
(-0.00841419 -0.000327682 0)
(-0.00807147 -0.000345365 0)
(-0.0077118 -0.000361237 0)
(-0.00733707 -0.000375151 0)
(-0.00694931 -0.000386972 0)
(-0.00655068 -0.000396576 0)
(-0.00614346 -0.000403857 0)
(-0.00573001 -0.000408724 0)
(-0.00531278 -0.000411102 0)
(-0.00489428 -0.00041094 0)
(-0.00447706 -0.000408204 0)
(-0.00406369 -0.000402882 0)
(-0.00365675 -0.000394985 0)
(-0.00325878 -0.000384545 0)
(-0.00287228 -0.000371618 0)
(-0.0024997 -0.000356282 0)
(-0.00214337 -0.00033864 0)
(-0.00180553 -0.000318816 0)
(-0.00148826 -0.000296957 0)
(-0.00119349 -0.000273236 0)
(-0.000922974 -0.000247849 0)
(-0.000678231 -0.000221018 0)
(-0.000460552 -0.000192992 0)
(-0.000270958 -0.000164054 0)
(-0.000110163 -0.000134523 0)
(2.14634e-05 -0.000104767 0)
(0.000123945 -7.5212e-05 0)
(0.000197761 -4.63627e-05 0)
(0.000243922 -1.88283e-05 0)
(0.000264069 6.64157e-06 0)
(0.000260596 2.91087e-05 0)
(0.0002368 4.73879e-05 0)
(0.00019706 5.99863e-05 0)
(0.000147002 6.5077e-05 0)
(9.35925e-05 6.06083e-05 0)
(4.48546e-05 4.4833e-05 0)
(9.14477e-06 1.798e-05 0)
(9.01247e-06 -3.75522e-05 0)
(3.63509e-05 -6.44951e-05 0)
(5.54647e-05 -5.50436e-05 0)
(5.34865e-05 -2.01293e-05 0)
(2.05663e-05 3.13912e-05 0)
(-4.98674e-05 9.28472e-05 0)
(-0.000161765 0.000159384 0)
(-0.000317005 0.000227557 0)
(-0.0005159 0.000294973 0)
(-0.000757612 0.000360006 0)
(-0.00104048 0.00042158 0)
(-0.00136225 0.000479018 0)
(-0.00172033 0.000531927 0)
(-0.00211186 0.000580116 0)
(-0.00253386 0.000623538 0)
(-0.00298332 0.000662245 0)
(-0.00345725 0.000696354 0)
(-0.00395269 0.000726026 0)
(-0.00446677 0.000751446 0)
(-0.00499673 0.000772809 0)
(-0.00553991 0.000790311 0)
(-0.00609375 0.000804142 0)
(-0.0066558 0.000814477 0)
(-0.00722371 0.000821477 0)
(-0.00779521 0.000825284 0)
(-0.00836814 0.000826021 0)
(-0.00894037 0.000823791 0)
(-0.00950986 0.000818678 0)
(-0.0100746 0.000810745 0)
(-0.0106327 0.000800042 0)
(-0.0111821 0.000786602 0)
(-0.0117209 0.000770446 0)
(-0.0122473 0.000751586 0)
(-0.0127593 0.000730024 0)
(-0.0132552 0.00070576 0)
(-0.0137329 0.000678792 0)
(-0.0141906 0.000649119 0)
(-0.0146266 0.000616743 0)
(-0.0150388 0.000581674 0)
(-0.0154256 0.000543932 0)
(-0.015785 0.000503548 0)
(-0.0161153 0.00046057 0)
(-0.0164148 0.000415059 0)
(-0.0166819 0.000367098 0)
(-0.0169148 0.00031679 0)
(-0.0171122 0.000264259 0)
(-0.0172725 0.000209654 0)
(-0.0173945 0.000153146 0)
(-0.0174771 9.49323e-05 0)
(-0.0175191 3.52363e-05 0)
(-0.0175197 -2.56951e-05 0)
(-0.0174783 -8.75902e-05 0)
(-0.0173943 -0.000150153 0)
(-0.0172674 -0.000213066 0)
(-0.0170976 -0.000275991 0)
(-0.0168851 -0.000338569 0)
(-0.0166303 -0.000400426 0)
(-0.0163338 -0.000461176 0)
(-0.0159965 -0.00052042 0)
(-0.0156197 -0.000577753 0)
(-0.0152048 -0.000632766 0)
(-0.0147536 -0.000685052 0)
(-0.014268 -0.000734207 0)
(-0.0137503 -0.000779838 0)
(-0.013203 -0.000821565 0)
(-0.0126289 -0.000859025 0)
(-0.0120309 -0.000891878 0)
(-0.0114123 -0.000919811 0)
(-0.0107765 -0.000942542 0)
(-0.0101269 -0.000959825 0)
(-0.00946741 -0.000971451 0)
(-0.00880173 -0.000977253 0)
(-0.00813383 -0.000977111 0)
(-0.00746769 -0.00097095 0)
(-0.00680732 -0.000958746 0)
(-0.00615675 -0.000940527 0)
(-0.00551995 -0.000916372 0)
(-0.00490082 -0.000886415 0)
(-0.00430316 -0.000850844 0)
(-0.00373061 -0.000809899 0)
(-0.00318663 -0.000763879 0)
(-0.00267449 -0.000713135 0)
(-0.00219715 -0.000658077 0)
(-0.00175732 -0.000599173 0)
(-0.00135734 -0.000536951 0)
(-0.000999171 -0.000472009 0)
(-0.000684364 -0.000405018 0)
(-0.00041397 -0.000336739 0)
(-0.000188499 -0.000268037 0)
(-7.84991e-06 -0.000199911 0)
(0.000128779 -0.000133522 0)
(0.000222988 -7.02502e-05 0)
(0.000277302 -1.17501e-05 0)
(0.000295312 3.99673e-05 0)
(0.000281838 8.24462e-05 0)
(0.000243108 0.000112706 0)
(0.000186895 0.000127219 0)
(0.000122575 0.000122073 0)
(6.0833e-05 9.35636e-05 0)
(1.29907e-05 3.96997e-05 0)
(6.48747e-06 -5.09293e-05 0)
(2.23395e-05 -7.98309e-05 0)
(2.06505e-05 -5.31178e-05 0)
(-1.23171e-05 1.26344e-05 0)
(-8.72455e-05 0.000104264 0)
(-0.000211318 0.000211741 0)
(-0.000388944 0.000327585 0)
(-0.000622273 0.000446332 0)
(-0.000911687 0.000564064 0)
(-0.00125622 0.000678025 0)
(-0.00165389 0.000786331 0)
(-0.00210199 0.000887744 0)
(-0.00259733 0.0009815 0)
(-0.00313635 0.00106719 0)
(-0.00371532 0.00114464 0)
(-0.00433041 0.00121389 0)
(-0.00497777 0.00127507 0)
(-0.00565358 0.00132841 0)
(-0.00635411 0.00137419 0)
(-0.00707571 0.00141271 0)
(-0.00781487 0.00144429 0)
(-0.00856818 0.00146924 0)
(-0.00933236 0.00148785 0)
(-0.0101043 0.00150038 0)
(-0.0108808 0.00150707 0)
(-0.011659 0.00150814 0)
(-0.0124361 0.00150375 0)
(-0.0132091 0.00149406 0)
(-0.0139755 0.00147918 0)
(-0.0147324 0.00145921 0)
(-0.0154773 0.00143419 0)
(-0.0162076 0.00140418 0)
(-0.0169205 0.0013692 0)
(-0.0176137 0.00132927 0)
(-0.0182845 0.0012844 0)
(-0.0189303 0.0012346 0)
(-0.0195487 0.00117986 0)
(-0.0201371 0.00112022 0)
(-0.020693 0.0010557 0)
(-0.021214 0.000986344 0)
(-0.0216977 0.000912231 0)
(-0.0221417 0.000833453 0)
(-0.0225437 0.000750137 0)
(-0.0229016 0.000662441 0)
(-0.0232131 0.000570561 0)
(-0.0234763 0.000474734 0)
(-0.0236895 0.000375233 0)
(-0.0238507 0.000272379 0)
(-0.0239587 0.000166533 0)
(-0.0240119 5.81006e-05 0)
(-0.0240094 -5.24678e-05 0)
(-0.0239503 -0.00016468 0)
(-0.0238339 -0.000278003 0)
(-0.02366 -0.000391865 0)
(-0.0234286 -0.000505657 0)
(-0.0231398 -0.00061874 0)
(-0.0227943 -0.000730444 0)
(-0.022393 -0.000840081 0)
(-0.0219373 -0.000946939 0)
(-0.0214286 -0.0010503 0)
(-0.0208691 -0.00114944 0)
(-0.0202611 -0.00124363 0)
(-0.0196072 -0.00133216 0)
(-0.0189104 -0.00141434 0)
(-0.018174 -0.00148949 0)
(-0.0174019 -0.00155697 0)
(-0.0165978 -0.00161619 0)
(-0.0157661 -0.00166658 0)
(-0.0149113 -0.00170767 0)
(-0.0140379 -0.001739 0)
(-0.013151 -0.00176022 0)
(-0.0122557 -0.00177103 0)
(-0.011357 -0.00177123 0)
(-0.0104602 -0.00176069 0)
(-0.0095707 -0.00173936 0)
(-0.00869369 -0.00170731 0)
(-0.00783442 -0.00166468 0)
(-0.00699804 -0.00161171 0)
(-0.00618953 -0.00154874 0)
(-0.00541368 -0.00147621 0)
(-0.00467506 -0.00139467 0)
(-0.0039779 -0.00130473 0)
(-0.00332613 -0.00120716 0)
(-0.00272326 -0.00110279 0)
(-0.00217235 -0.000992586 0)
(-0.00167596 -0.000877622 0)
(-0.00123606 -0.000759114 0)
(-0.000854006 -0.000638427 0)
(-0.000530428 -0.00051711 0)
(-0.000265163 -0.000396926 0)
(-5.71528e-05 -0.000279911 0)
(9.56614e-05 -0.000168433 0)
(0.000196471 -6.52797e-05 0)
(0.000249737 2.62436e-05 0)
(0.000261346 0.000102206 0)
(0.00023876 0.000157959 0)
(0.000191143 0.000188107 0)
(0.000129409 0.000186639 0)
(6.60336e-05 0.000147362 0)
(1.44359e-05 6.48682e-05 0)
(2.10452e-06 -5.71038e-05 0)
(-2.12934e-07 -7.54041e-05 0)
(-3.16191e-05 -1.99312e-05 0)
(-0.000105606 8.77719e-05 0)
(-0.000232747 0.000230549 0)
(-0.000420091 0.000395138 0)
(-0.000671967 0.000571452 0)
(-0.000990436 0.000751945 0)
(-0.00137575 0.000931068 0)
(-0.00182671 0.00110482 0)
(-0.00234106 0.00127037 0)
(-0.00291568 0.00142583 0)
(-0.00354687 0.00156995 0)
(-0.00423054 0.00170202 0)
(-0.00496231 0.0018217 0)
(-0.00573769 0.00192895 0)
(-0.0065521 0.0020239 0)
(-0.00740101 0.00210682 0)
(-0.00827991 0.00217809 0)
(-0.00918442 0.00223811 0)
(-0.0101102 0.00228733 0)
(-0.0110532 0.00232617 0)
(-0.0120093 0.00235505 0)
(-0.0129747 0.00237436 0)
(-0.0139454 0.00238445 0)
(-0.0149179 0.00238563 0)
(-0.0158886 0.00237816 0)
(-0.016854 0.00236225 0)
(-0.0178106 0.0023381 0)
(-0.018755 0.00230582 0)
(-0.0196841 0.00226554 0)
(-0.0205944 0.00221732 0)
(-0.0214828 0.00216121 0)
(-0.0223459 0.00209725 0)
(-0.0231808 0.00202547 0)
(-0.023984 0.00194589 0)
(-0.0247526 0.00185854 0)
(-0.0254834 0.00176347 0)
(-0.0261734 0.00166074 0)
(-0.0268194 0.00155045 0)
(-0.0274186 0.00143271 0)
(-0.027968 0.00130771 0)
(-0.0284648 0.00117565 0)
(-0.0289065 0.00103679 0)
(-0.0292903 0.000891466 0)
(-0.0296139 0.000740049 0)
(-0.029875 0.000582987 0)
(-0.0300717 0.000420786 0)
(-0.0302021 0.000254023 0)
(-0.0302647 8.33382e-05 0)
(-0.0302581 -9.05604e-05 0)
(-0.0301815 -0.000266901 0)
(-0.030034 -0.000444849 0)
(-0.0298154 -0.000623513 0)
(-0.0295257 -0.000801946 0)
(-0.0291652 -0.000979156 0)
(-0.0287348 -0.00115411 0)
(-0.0282357 -0.00132573 0)
(-0.0276695 -0.00149292 0)
(-0.0270382 -0.00165458 0)
(-0.0263443 -0.00180959 0)
(-0.0255905 -0.00195684 0)
(-0.0247804 -0.00209522 0)
(-0.0239174 -0.00222367 0)
(-0.0230058 -0.00234115 0)
(-0.02205 -0.00244669 0)
(-0.0210549 -0.00253936 0)
(-0.0200256 -0.00261832 0)
(-0.0189675 -0.00268282 0)
(-0.0178865 -0.00273218 0)
(-0.0167884 -0.00276586 0)
(-0.0156795 -0.0027834 0)
(-0.0145659 -0.00278449 0)
(-0.0134542 -0.00276894 0)
(-0.0123506 -0.00273669 0)
(-0.0112617 -0.00268784 0)
(-0.0101937 -0.00262261 0)
(-0.00915295 -0.0025414 0)
(-0.00814542 -0.00244473 0)
(-0.00717694 -0.00233329 0)
(-0.00625303 -0.00220792 0)
(-0.00537883 -0.00206963 0)
(-0.00455908 -0.00191956 0)
(-0.00379802 -0.00175905 0)
(-0.00309935 -0.00158959 0)
(-0.00246615 -0.00141286 0)
(-0.00190081 -0.00123077 0)
(-0.00140493 -0.00104542 0)
(-0.000979287 -0.000859195 0)
(-0.000623707 -0.000674798 0)
(-0.000336969 -0.000495296 0)
(-0.000116703 -0.000324216 0)
(4.07333e-05 -0.000165632 0)
(0.000140385 -2.42874e-05 0)
(0.000188829 9.4295e-05 0)
(0.000194312 0.0001837 0)
(0.000166864 0.000236561 0)
(0.000118367 0.000244608 0)
(6.24733e-05 0.000198852 0)
(1.39436e-05 9.00529e-05 0)
(-3.39446e-06 -5.37317e-05 0)
(-2.81177e-05 -4.57303e-05 0)
(-9.52691e-05 5.18995e-05 0)
(-0.000217378 0.000213587 0)
(-0.000404239 0.000418715 0)
(-0.000662196 0.000651106 0)
(-0.000995044 0.000898231 0)
(-0.00140443 0.00115054 0)
(-0.00189024 0.00140085 0)
(-0.00245095 0.00164388 0)
(-0.00308391 0.00187584 0)
(-0.00378563 0.00209405 0)
(-0.00455196 0.00229678 0)
(-0.0053783 0.00248294 0)
(-0.00625975 0.00265198 0)
(-0.00719122 0.00280372 0)
(-0.00816755 0.00293827 0)
(-0.00918355 0.00305594 0)
(-0.0102341 0.00315716 0)
(-0.0113141 0.00324244 0)
(-0.0124186 0.00331234 0)
(-0.0135428 0.00336743 0)
(-0.014682 0.00340824 0)
(-0.0158315 0.00343529 0)
(-0.016987 0.00344904 0)
(-0.0181441 0.00344991 0)
(-0.0192985 0.00343827 0)
(-0.0204461 0.0034144 0)
(-0.0215829 0.00337856 0)
(-0.0227048 0.00333095 0)
(-0.0238078 0.00327171 0)
(-0.0248882 0.00320095 0)
(-0.025942 0.00311878 0)
(-0.0269654 0.00302524 0)
(-0.0279547 0.00292039 0)
(-0.028906 0.0028043 0)
(-0.0298157 0.00267701 0)
(-0.0306801 0.00253862 0)
(-0.0314956 0.00238924 0)
(-0.0322586 0.00222903 0)
(-0.0329657 0.00205818 0)
(-0.0336135 0.00187697 0)
(-0.0341987 0.00168572 0)
(-0.0347182 0.00148483 0)
(-0.035169 0.00127477 0)
(-0.0355485 0.00105611 0)
(-0.0358539 0.000829499 0)
(-0.036083 0.000595677 0)
(-0.0362338 0.000355478 0)
(-0.0363044 0.000109825 0)
(-0.0362935 -0.000140264 0)
(-0.0361999 -0.000393682 0)
(-0.0360229 -0.000649238 0)
(-0.0357621 -0.000905659 0)
(-0.0354177 -0.0011616 0)
(-0.0349901 -0.00141565 0)
(-0.0344804 -0.00166634 0)
(-0.0338899 -0.00191215 0)
(-0.0332207 -0.00215154 0)
(-0.032475 -0.00238294 0)
(-0.0316559 -0.00260476 0)
(-0.0307665 -0.00281545 0)
(-0.0298109 -0.00301346 0)
(-0.0287934 -0.00319728 0)
(-0.0277186 -0.00336545 0)
(-0.0265919 -0.00351661 0)
(-0.0254188 -0.00364945 0)
(-0.0242053 -0.0037628 0)
(-0.0229578 -0.00385559 0)
(-0.0216829 -0.00392689 0)
(-0.0203875 -0.00397591 0)
(-0.0190788 -0.00400204 0)
(-0.0177639 -0.00400484 0)
(-0.0164503 -0.00398404 0)
(-0.0151455 -0.00393957 0)
(-0.0138568 -0.00387156 0)
(-0.0125915 -0.00378036 0)
(-0.011357 -0.00366652 0)
(-0.0101601 -0.00353078 0)
(-0.00900763 -0.00337414 0)
(-0.00790593 -0.0031978 0)
(-0.00686097 -0.00300318 0)
(-0.00587821 -0.00279193 0)
(-0.00496257 -0.00256595 0)
(-0.00411833 -0.00232738 0)
(-0.00334904 -0.0020786 0)
(-0.00265749 -0.0018223 0)
(-0.00204556 -0.00156146 0)
(-0.0015142 -0.00129944 0)
(-0.00106328 -0.00103999 0)
(-0.000691517 -0.000787333 0)
(-0.000396386 -0.000546276 0)
(-0.000173982 -0.000322285 0)
(-1.89231e-05 -0.000121622 0)
(7.57679e-05 4.85337e-05 0)
(0.00011878 0.000179952 0)
(0.000120627 0.000263254 0)
(9.37228e-05 0.00028785 0)
(5.23816e-05 0.000241916 0)
(1.20564e-05 0.00011251 0)
(-9.51978e-06 -3.93987e-05 0)
(-5.9183e-05 1.27926e-05 0)
(-0.000165991 0.000167489 0)
(-0.000341087 0.000396057 0)
(-0.000593035 0.000675048 0)
(-0.000927039 0.000985776 0)
(-0.001346 0.00131354 0)
(-0.00185087 0.00164695 0)
(-0.00244094 0.00197728 0)
(-0.00311422 0.00229802 0)
(-0.00386759 0.00260438 0)
(-0.00469713 0.00289295 0)
(-0.00559824 0.00316141 0)
(-0.00656585 0.00340831 0)
(-0.00759458 0.00363282 0)
(-0.00867883 0.00383463 0)
(-0.0098129 0.00401378 0)
(-0.010991 0.0041706 0)
(-0.0122076 0.00430556 0)
(-0.0134568 0.00441928 0)
(-0.0147332 0.00451242 0)
(-0.0160313 0.00458566 0)
(-0.0173458 0.00463967 0)
(-0.0186715 0.0046751 0)
(-0.0200034 0.00469253 0)
(-0.0213365 0.00469249 0)
(-0.0226659 0.00467544 0)
(-0.023987 0.00464176 0)
(-0.025295 0.00459177 0)
(-0.0265853 0.00452575 0)
(-0.0278535 0.00444388 0)
(-0.029095 0.00434635 0)
(-0.0303055 0.00423327 0)
(-0.0314805 0.00410474 0)
(-0.0326158 0.00396086 0)
(-0.033707 0.00380172 0)
(-0.0347498 0.00362743 0)
(-0.0357402 0.00343814 0)
(-0.036674 0.00323402 0)
(-0.0375471 0.00301531 0)
(-0.0383557 0.00278231 0)
(-0.0390959 0.00253539 0)
(-0.039764 0.00227503 0)
(-0.0403566 0.00200179 0)
(-0.0408703 0.00171632 0)
(-0.041302 0.00141942 0)
(-0.0416488 0.00111196 0)
(-0.0419083 0.00079497 0)
(-0.0420781 0.000469572 0)
(-0.0421562 0.000137023 0)
(-0.0421411 -0.000201304 0)
(-0.0420316 -0.000543919 0)
(-0.041827 -0.000889219 0)
(-0.0415268 -0.0012355 0)
(-0.0411313 -0.00158096 0)
(-0.0406411 -0.00192371 0)
(-0.0400574 -0.00226179 0)
(-0.0393817 -0.00259318 0)
(-0.0386164 -0.00291583 0)
(-0.0377641 -0.00322764 0)
(-0.0368281 -0.00352653 0)
(-0.0358123 -0.0038104 0)
(-0.034721 -0.0040772 0)
(-0.0335591 -0.00432495 0)
(-0.0323319 -0.00455171 0)
(-0.0310453 -0.00475566 0)
(-0.0297057 -0.0049351 0)
(-0.0283198 -0.00508844 0)
(-0.0268946 -0.00521428 0)
(-0.0254377 -0.00531139 0)
(-0.0239568 -0.00537875 0)
(-0.0224599 -0.00541552 0)
(-0.0209551 -0.00542113 0)
(-0.0194508 -0.00539523 0)
(-0.0179552 -0.00533774 0)
(-0.0164767 -0.00524884 0)
(-0.0150235 -0.00512898 0)
(-0.0136038 -0.0049789 0)
(-0.0122254 -0.00479963 0)
(-0.0108957 -0.00459247 0)
(-0.00962209 -0.00435904 0)
(-0.00841114 -0.00410126 0)
(-0.00726905 -0.00382132 0)
(-0.00620133 -0.00352177 0)
(-0.00521283 -0.00320546 0)
(-0.00430757 -0.00287559 0)
(-0.00348872 -0.00253571 0)
(-0.00275847 -0.00218979 0)
(-0.00211799 -0.00184224 0)
(-0.00156726 -0.00149796 0)
(-0.00110506 -0.00116243 0)
(-0.000728834 -0.000841823 0)
(-0.000434578 -0.000543046 0)
(-0.000216778 -0.000273932 0)
(-6.82906e-05 -4.3346e-05 0)
(1.97489e-05 0.000138664 0)
(5.80347e-05 0.000260716 0)
(5.91541e-05 0.000309955 0)
(3.76671e-05 0.000271873 0)
(9.21542e-06 0.000130259 0)
(-1.59605e-05 -1.33245e-05 0)
(-9.19536e-05 0.000102377 0)
(-0.000240804 0.000330191 0)
(-0.000472062 0.000639286 0)
(-0.000792771 0.00100401 0)
(-0.00120669 0.00140363 0)
(-0.00171556 0.00182159 0)
(-0.00231935 0.00224487 0)
(-0.00301663 0.00266337 0)
(-0.00380473 0.00306941 0)
(-0.00468002 0.00345729 0)
(-0.00563804 0.00382286 0)
(-0.00667373 0.00416325 0)
(-0.00778156 0.0044766 0)
(-0.00895568 0.00476183 0)
(-0.01019 0.00501846 0)
(-0.0114784 0.00524646 0)
(-0.0128145 0.00544613 0)
(-0.0141922 0.00561801 0)
(-0.0156053 0.00576278 0)
(-0.0170477 0.0058812 0)
(-0.0185134 0.00597408 0)
(-0.0199965 0.00604221 0)
(-0.0214914 0.00608636 0)
(-0.0229924 0.00610724 0)
(-0.024494 0.00610547 0)
(-0.0259908 0.00608162 0)
(-0.0274775 0.00603618 0)
(-0.0289489 0.00596953 0)
(-0.0303999 0.00588202 0)
(-0.0318253 0.00577391 0)
(-0.0332203 0.00564541 0)
(-0.0345797 0.0054967 0)
(-0.0358988 0.00532794 0)
(-0.0371727 0.00513925 0)
(-0.0383967 0.00493079 0)
(-0.0395659 0.00470273 0)
(-0.0406757 0.00445527 0)
(-0.0417215 0.00418869 0)
(-0.042699 0.0039033 0)
(-0.0436037 0.00359953 0)
(-0.0444314 0.0032779 0)
(-0.0451781 0.00293904 0)
(-0.0458399 0.00258369 0)
(-0.0464132 0.00221274 0)
(-0.0468945 0.00182722 0)
(-0.0472808 0.00142829 0)
(-0.0475692 0.00101727 0)
(-0.0477573 0.000595624 0)
(-0.047843 0.000164987 0)
(-0.0478246 -0.000272872 0)
(-0.0477007 -0.000716035 0)
(-0.0474707 -0.00116244 0)
(-0.0471342 -0.00160991 0)
(-0.0466914 -0.00205613 0)
(-0.0461431 -0.00249868 0)
(-0.0454905 -0.00293507 0)
(-0.0447355 -0.00336272 0)
(-0.0438806 -0.00377901 0)
(-0.0429288 -0.00418127 0)
(-0.0418838 -0.00456685 0)
(-0.0407497 -0.00493309 0)
(-0.0395314 -0.00527738 0)
(-0.0382342 -0.00559719 0)
(-0.0368641 -0.00589007 0)
(-0.0354275 -0.00615371 0)
(-0.0339314 -0.00638594 0)
(-0.0323831 -0.00658476 0)
(-0.0307904 -0.00674838 0)
(-0.0291616 -0.00687525 0)
(-0.0275052 -0.00696404 0)
(-0.0258299 -0.00701374 0)
(-0.0241447 -0.00702359 0)
(-0.0224587 -0.00699316 0)
(-0.020781 -0.00692234 0)
(-0.0191209 -0.00681138 0)
(-0.0174873 -0.00666084 0)
(-0.0158892 -0.00647168 0)
(-0.0143352 -0.0062452 0)
(-0.0128337 -0.00598309 0)
(-0.0113925 -0.0056874 0)
(-0.010019 -0.00536059 0)
(-0.00872008 -0.00500547 0)
(-0.00750184 -0.00462529 0)
(-0.00636962 -0.00422369 0)
(-0.00532796 -0.00380473 0)
(-0.00438042 -0.00337294 0)
(-0.00352954 -0.00293332 0)
(-0.00277673 -0.00249143 0)
(-0.0021222 -0.0020534 0)
(-0.00156487 -0.00162602 0)
(-0.00110226 -0.00121685 0)
(-0.000730445 -0.000834328 0)
(-0.000443929 -0.000487852 0)
(-0.000235599 -0.000187975 0)
(-9.66265e-05 5.34604e-05 0)
(-1.63845e-05 0.000223136 0)
(1.76019e-05 0.000306059 0)
(1.98157e-05 0.00028531 0)
(5.74999e-06 0.000141945 0)
(-2.25223e-05 2.48579e-05 0)
(-0.000125482 0.000224257 0)
(-0.000317682 0.00054205 0)
(-0.000607013 0.000945932 0)
(-0.000998839 0.00140864 0)
(-0.00149527 0.00190782 0)
(-0.00209667 0.00242541 0)
(-0.00280186 0.00294701 0)
(-0.00360849 0.00346134 0)
(-0.00451311 0.0039597 0)
(-0.00551142 0.00443552 0)
(-0.00659841 0.004884 0)
(-0.0077685 0.00530175 0)
(-0.00901566 0.00568652 0)
(-0.0103336 0.00603697 0)
(-0.0117157 0.00635245 0)
(-0.0131555 0.00663285 0)
(-0.0146461 0.00687847 0)
(-0.0161809 0.00708985 0)
(-0.0177533 0.00726777 0)
(-0.0193566 0.00741307 0)
(-0.0209844 0.00752668 0)
(-0.0226304 0.0076095 0)
(-0.0242884 0.00766242 0)
(-0.0259521 0.00768627 0)
(-0.0276156 0.00768178 0)
(-0.0292731 0.00764963 0)
(-0.0309186 0.00759037 0)
(-0.0325465 0.00750451 0)
(-0.0341512 0.00739244 0)
(-0.035727 0.00725449 0)
(-0.0372686 0.00709094 0)
(-0.0387704 0.00690202 0)
(-0.040227 0.00668794 0)
(-0.0416333 0.00644888 0)
(-0.0429838 0.00618507 0)
(-0.0442735 0.00589674 0)
(-0.0454973 0.00558419 0)
(-0.0466501 0.00524777 0)
(-0.0477271 0.00488793 0)
(-0.0487236 0.00450522 0)
(-0.0496349 0.00410034 0)
(-0.0504567 0.00367408 0)
(-0.0511849 0.00322742 0)
(-0.0518153 0.00276148 0)
(-0.0523445 0.00227756 0)
(-0.052769 0.00177714 0)
(-0.0530858 0.00126187 0)
(-0.0532923 0.000733597 0)
(-0.0533862 0.000194352 0)
(-0.0533657 -0.000353654 0)
(-0.0532295 -0.000908034 0)
(-0.0529767 -0.00146623 0)
(-0.0526071 -0.00202553 0)
(-0.0521209 -0.00258309 0)
(-0.0515189 -0.0031359 0)
(-0.0508025 -0.00368089 0)
(-0.0499739 -0.00421488 0)
(-0.0490356 -0.00473462 0)
(-0.0479911 -0.00523685 0)
(-0.0468441 -0.00571827 0)
(-0.0455993 -0.00617563 0)
(-0.0442619 -0.00660572 0)
(-0.0428377 -0.00700542 0)
(-0.0413331 -0.00737171 0)
(-0.039755 -0.00770175 0)
(-0.038111 -0.00799287 0)
(-0.036409 -0.00824261 0)
(-0.0346576 -0.00844878 0)
(-0.0328655 -0.00860944 0)
(-0.0310419 -0.008723 0)
(-0.0291963 -0.00878816 0)
(-0.0273385 -0.00880402 0)
(-0.0254782 -0.00877004 0)
(-0.0236255 -0.00868608 0)
(-0.0217901 -0.00855244 0)
(-0.019982 -0.00836983 0)
(-0.0182107 -0.0081394 0)
(-0.0164858 -0.00786279 0)
(-0.0148162 -0.00754207 0)
(-0.0132105 -0.00717977 0)
(-0.0116768 -0.00677891 0)
(-0.0102225 -0.006343 0)
(-0.0088544 -0.005876 0)
(-0.00757835 -0.00538242 0)
(-0.00639937 -0.00486724 0)
(-0.00532145 -0.00433602 0)
(-0.00434752 -0.00379488 0)
(-0.00347933 -0.00325055 0)
(-0.00271736 -0.00271044 0)
(-0.00206077 -0.00218273 0)
(-0.00150728 -0.00167641 0)
(-0.00105313 -0.00120142 0)
(-0.000693023 -0.000768754 0)
(-0.000420015 -0.000390627 0)
(-0.000225496 -8.06243e-05 0)
(-9.91006e-05 0.000146098 0)
(-2.86865e-05 0.000272589 0)
(-7.0653e-08 0.000279832 0)
(1.89611e-06 0.000146681 0)
(-2.90859e-05 7.52529e-05 0)
(-0.000159162 0.000378993 0)
(-0.000395266 0.000804155 0)
(-0.00074365 0.00131755 0)
(-0.00120793 0.0018908 0)
(-0.00178846 0.00250037 0)
(-0.00248404 0.00312702 0)
(-0.00329226 0.00375524 0)
(-0.00420965 0.00437276 0)
(-0.0052319 0.00497 0)
(-0.00635395 0.00553969 0)
(-0.00757015 0.00607642 0)
(-0.00887435 0.00657635 0)
(-0.01026 0.00703687 0)
(-0.0117203 0.00745641 0)
(-0.0132483 0.00783417 0)
(-0.0148369 0.00816996 0)
(-0.016479 0.00846405 0)
(-0.0181674 0.00871704 0)
(-0.019895 0.00892975 0)
(-0.0216549 0.00910312 0)
(-0.0234401 0.00923817 0)
(-0.0252439 0.00933594 0)
(-0.0270595 0.00939742 0)
(-0.0288804 0.00942355 0)
(-0.0307001 0.00941519 0)
(-0.0325123 0.00937309 0)
(-0.0343107 0.00929792 0)
(-0.0360891 0.00919025 0)
(-0.0378415 0.00905056 0)
(-0.0395618 0.00887925 0)
(-0.0412441 0.00867665 0)
(-0.0428824 0.00844307 0)
(-0.0444711 0.00817877 0)
(-0.0460043 0.007884 0)
(-0.0474763 0.00755906 0)
(-0.0488817 0.00720426 0)
(-0.0502148 0.00682 0)
(-0.0514703 0.00640674 0)
(-0.0526431 0.00596506 0)
(-0.0537279 0.00549568 0)
(-0.0547198 0.00499945 0)
(-0.0556142 0.0044774 0)
(-0.0564066 0.00393072 0)
(-0.0570928 0.00336082 0)
(-0.0576687 0.00276928 0)
(-0.058131 0.00215792 0)
(-0.0584763 0.00152877 0)
(-0.0587018 0.000884077 0)
(-0.0588051 0.000226309 0)
(-0.0587844 -0.000441851 0)
(-0.0586382 -0.00111751 0)
(-0.0583657 -0.00179758 0)
(-0.0579664 -0.00247879 0)
(-0.0574409 -0.00315768 0)
(-0.0567898 -0.00383067 0)
(-0.0560148 -0.00449403 0)
(-0.055118 -0.00514394 0)
(-0.0541023 -0.00577651 0)
(-0.0529713 -0.0063878 0)
(-0.051729 -0.00697387 0)
(-0.0503805 -0.0075308 0)
(-0.0489312 -0.00805473 0)
(-0.0473873 -0.00854193 0)
(-0.0457556 -0.00898878 0)
(-0.0440437 -0.00939185 0)
(-0.0422594 -0.00974794 0)
(-0.0404113 -0.0100541 0)
(-0.0385084 -0.0103077 0)
(-0.0365602 -0.0105064 0)
(-0.0345764 -0.0106482 0)
(-0.0325673 -0.0107317 0)
(-0.0305432 -0.0107557 0)
(-0.0285146 -0.0107196 0)
(-0.0264921 -0.0106232 0)
(-0.0244865 -0.0104668 0)
(-0.0225083 -0.0102513 0)
(-0.0205677 -0.00997804 0)
(-0.018675 -0.00964902 0)
(-0.0168399 -0.00926671 0)
(-0.0150716 -0.00883415 0)
(-0.0133789 -0.00835496 0)
(-0.0117699 -0.00783335 0)
(-0.0102518 -0.00727408 0)
(-0.00883115 -0.00668253 0)
(-0.00751347 -0.00606469 0)
(-0.00630321 -0.00542716 0)
(-0.00520374 -0.00477723 0)
(-0.00421719 -0.00412288 0)
(-0.00334439 -0.00347283 0)
(-0.00258484 -0.00283665 0)
(-0.00193655 -0.00222479 0)
(-0.00139606 -0.00164871 0)
(-0.000958345 -0.00112099 0)
(-0.000616794 -0.000655473 0)
(-0.000363146 -0.00026741 0)
(-0.000187449 2.63182e-05 0)
(-7.80501e-05 0.000206999 0)
(-2.12011e-05 0.000253825 0)
(-2.18159e-06 0.000143923 0)
(-3.55794e-05 0.000137801 0)
(-0.00019261 0.000566685 0)
(-0.000472654 0.00111691 0)
(-0.000880394 0.00175487 0)
(-0.0014177 0.0024515 0)
(-0.00208308 0.00318245 0)
(-0.00287374 0.00392761 0)
(-0.00378584 0.00467065 0)
(-0.00481478 0.00539852 0)
(-0.00595524 0.00610095 0)
(-0.00720134 0.00677005 0)
(-0.0085467 0.00739995 0)
(-0.00998455 0.00798639 0)
(-0.0115078 0.00852651 0)
(-0.0131092 0.0090185 0)
(-0.0147813 0.00946146 0)
(-0.0165165 0.00985513 0)
(-0.0183072 0.0101998 0)
(-0.0201461 0.010496 0)
(-0.0220255 0.0107447 0)
(-0.0239381 0.010947 0)
(-0.0258765 0.0111039 0)
(-0.0278336 0.0112166 0)
(-0.0298022 0.0112862 0)
(-0.0317754 0.0113138 0)
(-0.0337463 0.0113002 0)
(-0.0357081 0.0112464 0)
(-0.0376542 0.0111532 0)
(-0.0395779 0.0110211 0)
(-0.0414727 0.0108508 0)
(-0.0433323 0.0106426 0)
(-0.0451503 0.0103971 0)
(-0.0469203 0.0101146 0)
(-0.0486362 0.00979533 0)
(-0.0502918 0.00943973 0)
(-0.0518811 0.00904814 0)
(-0.0533981 0.00862096 0)
(-0.0548369 0.0081587 0)
(-0.0561918 0.00766196 0)
(-0.0574573 0.00713145 0)
(-0.0586278 0.00656807 0)
(-0.0596983 0.00597285 0)
(-0.0606635 0.00534706 0)
(-0.061519 0.00469215 0)
(-0.06226 0.0040098 0)
(-0.0628825 0.00330194 0)
(-0.0633828 0.00257073 0)
(-0.0637573 0.00181861 0)
(-0.0640031 0.00104825 0)
(-0.0641177 0.000262586 0)
(-0.0640991 -0.000535197 0)
(-0.0639457 -0.00134167 0)
(-0.0636567 -0.00215318 0)
(-0.0632317 -0.00296585 0)
(-0.062671 -0.00377562 0)
(-0.0619755 -0.00457823 0)
(-0.0611469 -0.00536931 0)
(-0.0601874 -0.00614435 0)
(-0.0591 -0.00689877 0)
(-0.0578885 -0.00762792 0)
(-0.0565573 -0.00832717 0)
(-0.0551114 -0.00899191 0)
(-0.0535568 -0.00961759 0)
(-0.0518999 -0.0101998 0)
(-0.0501479 -0.0107343 0)
(-0.0483088 -0.011217 0)
(-0.0463908 -0.0116443 0)
(-0.044403 -0.0120125 0)
(-0.042355 -0.0123185 0)