/*--------------------------------*- C++ -*----------------------------------*\
| =========                 |                                                 |
| \\      /  F ield         | OpenFOAM: The Open Source CFD Toolbox           |
|  \\    /   O peration     | Version:  4.1                                   |
|   \\  /    A nd           | Web:      www.OpenFOAM.org                      |
|    \\/     M anipulation  |                                                 |
\*---------------------------------------------------------------------------*/
FoamFile
{
    version     2.0;
    format      ascii;
    class       volVectorField;
    location    "2.25";
    object      U;
}
// * * * * * * * * * * * * * * * * * * * * * * * * * * * * * * * * * * * * * //

dimensions      [0 1 -1 0 0 0 0];

internalField   nonuniform List<vector> 
400
(
(9.48122e-05 -9.23705e-05 0)
(-0.000245735 0.000115681 0)
(-0.00138224 0.000281863 0)
(-0.00298197 0.000393017 0)
(-0.00486708 0.000435771 0)
(-0.00680155 0.000436365 0)
(-0.0086429 0.000402606 0)
(-0.0102545 0.000342308 0)
(-0.0115262 0.000255624 0)
(-0.0123486 0.000142774 0)
(-0.0126243 5.28145e-06 0)
(-0.0122777 -0.000149638 0)
(-0.0112773 -0.000307875 0)
(-0.0096656 -0.000446583 0)
(-0.00757127 -0.000539306 0)
(-0.0052383 -0.000555671 0)
(-0.0029669 -0.000481852 0)
(-0.00114837 -0.000304309 0)
(-2.50751e-05 -7.80421e-05 0)
(0.000156974 0.000146114 0)
(-0.000111109 0.000238718 0)
(-0.00162209 0.00157796 0)
(-0.00475004 0.0027034 0)
(-0.00880812 0.00343288 0)
(-0.0134258 0.00373095 0)
(-0.0181116 0.00368776 0)
(-0.0225293 0.00336311 0)
(-0.0263593 0.00280221 0)
(-0.0293369 0.00202486 0)
(-0.0312148 0.00104906 0)
(-0.0317836 -9.26896e-05 0)
(-0.030894 -0.00133338 0)
(-0.0284992 -0.00256129 0)
(-0.0247108 -0.00361798 0)
(-0.0198219 -0.00432067 0)
(-0.0143546 -0.00448906 0)
(-0.00894845 -0.00402246 0)
(-0.00440614 -0.0029113 0)
(-0.00123687 -0.00142475 0)
(-7.37867e-06 -3.61798e-07 0)
(-0.000310589 0.00142195 0)
(-0.00301491 0.00475927 0)
(-0.00795162 0.00735851 0)
(-0.0140742 0.00898473 0)
(-0.0208767 0.0096198 0)
(-0.0277003 0.00942852 0)
(-0.0340875 0.00854137 0)
(-0.0396002 0.00705872 0)
(-0.0438729 0.00503932 0)
(-0.0465668 0.0025409 0)
(-0.0473957 -0.000342797 0)
(-0.0461553 -0.00344144 0)
(-0.0427758 -0.00648529 0)
(-0.0373968 -0.00910427 0)
(-0.0304008 -0.010874 0)
(-0.0224844 -0.011387 0)
(-0.0145155 -0.0104069 0)
(-0.0076113 -0.00793481 0)
(-0.00250751 -0.00449398 0)
(-0.000160504 -0.000911062 0)
(-0.00048651 0.00327102 0)
(-0.00427274 0.00930843 0)
(-0.0108423 0.0137161 0)
(-0.018774 0.0163589 0)
(-0.0274426 0.0173184 0)
(-0.0360615 0.0168665 0)
(-0.0441015 0.0152213 0)
(-0.0510525 0.0125464 0)
(-0.0564864 0.00894414 0)
(-0.0599973 0.00451585 0)
(-0.0612295 -0.000577126 0)
(-0.0599078 -0.00604785 0)
(-0.0559004 -0.0114424 0)
(-0.0493146 -0.0161349 0)
(-0.0405529 -0.0193955 0)
(-0.0304292 -0.0205129 0)
(-0.0200121 -0.019043 0)
(-0.0107645 -0.0149532 0)
(-0.00370687 -0.00901037 0)
(-0.000283086 -0.00241484 0)
(-0.000628253 0.00574239 0)
(-0.00537727 0.0151738 0)
(-0.0134445 0.0217246 0)
(-0.0230384 0.025497 0)
(-0.0334207 0.0267648 0)
(-0.0436978 0.0259545 0)
(-0.0533003 0.0233951 0)
(-0.0616785 0.0193187 0)
(-0.0683664 0.0138671 0)
(-0.0729007 0.00717333 0)
(-0.0748446 -0.000546292 0)
(-0.0738147 -0.00889496 0)
(-0.0695545 -0.0172238 0)
(-0.0620589 -0.0246103 0)
(-0.0516711 -0.029937 0)
(-0.0392773 -0.0320699 0)
(-0.02616 -0.0302267 0)
(-0.0142366 -0.0242452 0)
(-0.00494536 -0.0151274 0)
(-0.000377262 -0.00451043 0)
(-0.000756286 0.00874189 0)
(-0.00640002 0.0222052 0)
(-0.0158873 0.0312167 0)
(-0.0270713 0.03623 0)
(-0.0391103 0.0378064 0)
(-0.0510237 0.0365844 0)
(-0.0622289 0.0330316 0)
(-0.0721647 0.0274505 0)
(-0.0803478 0.0200051 0)
(-0.0862635 0.0108291 0)
(-0.0893759 0.000154806 0)
(-0.0891465 -0.011547 0)
(-0.0851154 -0.0234467 0)
(-0.0770616 -0.0342944 0)
(-0.0651591 -0.0424847 0)
(-0.0502913 -0.0462863 0)
(-0.0339577 -0.044358 0)
(-0.0186762 -0.0362291 0)
(-0.00651134 -0.023113 0)
(-0.000489197 -0.00724014 0)
(-0.000880217 0.0122554 0)
(-0.00740186 0.0303801 0)
(-0.0182904 0.0421765 0)
(-0.0310499 0.0485582 0)
(-0.0447467 0.0504743 0)
(-0.0583351 0.0488385 0)
(-0.0712472 0.0442889 0)
(-0.0829408 0.0371971 0)
(-0.0929393 0.0277222 0)
(-0.100687 0.0159482 0)
(-0.105538 0.00205747 0)
(-0.106753 -0.0134736 0)
(-0.103589 -0.0296814 0)
(-0.095483 -0.0449792 0)
(-0.0822901 -0.0571631 0)
(-0.0647519 -0.0636676 0)
(-0.0445245 -0.0622477 0)
(-0.0248655 -0.0518016 0)
(-0.00875722 -0.0336511 0)
(-0.000663945 -0.0108541 0)
(-0.00101096 0.0162803 0)
(-0.00843776 0.0396925 0)
(-0.0207517 0.0545945 0)
(-0.0350981 0.0624747 0)
(-0.0504595 0.0647828 0)
(-0.0657503 0.0627795 0)
(-0.0804488 0.0573104 0)
(-0.0940681 0.0488128 0)
(-0.106171 0.0374055 0)
(-0.116186 0.0230551 0)
(-0.123361 0.00580153 0)
(-0.126741 -0.0139798 0)
(-0.125232 -0.0352854 0)
(-0.117812 -0.0562286 0)
(-0.103833 -0.0739198 0)
(-0.0836674 -0.0846853 0)
(-0.0589368 -0.0848819 0)
(-0.0336734 -0.0722181 0)
(-0.0121162 -0.0478038 0)
(-0.000964252 -0.0157901 0)
(-0.00115804 0.0208553 0)
(-0.00955192 0.0501945 0)
(-0.0233369 0.0685078 0)
(-0.0392692 0.0779925 0)
(-0.0562484 0.0807381 0)
(-0.073176 0.0784349 0)
(-0.0896096 0.0721814 0)
(-0.105159 0.0624784 0)
(-0.119468 0.0493663 0)
(-0.131992 0.032618 0)
(-0.141915 0.0120196 0)
(-0.148089 -0.0122946 0)
(-0.149066 -0.039429 0)
(-0.143301 -0.0673109 0)
(-0.12947 -0.09236 0)
(-0.107266 -0.109556 0)
(-0.0778936 -0.113241 0)
(-0.0459229 -0.0990457 0)
(-0.0170955 -0.0670799 0)
(-0.00147415 -0.0227486 0)
(-0.00133364 0.0260252 0)
(-0.0107949 0.0619325 0)
(-0.0261007 0.0839162 0)
(-0.0435635 0.0950407 0)
(-0.0619889 0.0982155 0)
(-0.0802958 0.0956548 0)
(-0.0981512 0.088767 0)
(-0.115306 0.0781176 0)
(-0.131531 0.0636377 0)
(-0.14637 0.0448357 0)
(-0.159027 0.0211349 0)
(-0.168256 -0.00772461 0)
(-0.17236 -0.0411484 0)
(-0.169315 -0.0770913 0)
(-0.157056 -0.111436 0)
(-0.134274 -0.137754 0)
(-0.101166 -0.147778 0)
(-0.0621317 -0.133811 0)
(-0.0242652 -0.0933435 0)
(-0.00231854 -0.0327336 0)
(-0.00156707 0.0319092 0)
(-0.0122511 0.0750206 0)
(-0.0291116 0.100829 0)
(-0.0479456 0.113471 0)
(-0.0674402 0.116924 0)
(-0.0865711 0.114034 0)
(-0.105139 0.106588 0)
(-0.123078 0.0952244 0)
(-0.140331 0.0797512 0)
(-0.156612 0.0593695 0)
(-0.171257 0.0330658 0)
(-0.183109 5.91989e-05 0)
(-0.190447 -0.03956 0)
(-0.190995 -0.0840829 0)
(-0.182077 -0.129236 0)
(-0.161182 -0.167482 0)
(-0.126852 -0.187658 0)
(-0.0820274 -0.177347 0)
(-0.0341721 -0.128568 0)
(-0.00368418 -0.0471211 0)
(-0.00190621 0.0386126 0)
(-0.014091 0.0894889 0)
(-0.0325307 0.119087 0)
(-0.0524299 0.132872 0)
(-0.0723241 0.136227 0)
(-0.0913218 0.132737 0)
(-0.109383 0.124644 0)
(-0.12667 0.112674 0)
(-0.143341 0.0965267 0)
(-0.159359 0.0751017 0)
(-0.174347 0.0469462 0)
(-0.187462 0.0107096 0)
(-0.197294 -0.0341765 0)
(-0.201707 -0.0866902 0)
(-0.197805 -0.143007 0)
(-0.181982 -0.195281 0)
(-0.150714 -0.229879 0)
(-0.103835 -0.228704 0)
(-0.0470937 -0.174207 0)
(-0.00583623 -0.0676564 0)
(-0.00247934 0.0465972 0)
(-0.0166306 0.105684 0)
(-0.0366132 0.138667 0)
(-0.0570371 0.152749 0)
(-0.0762631 0.155226 0)
(-0.0936881 0.150515 0)
(-0.10947 0.141398 0)
(-0.124064 0.128689 0)
(-0.137879 0.11202 0)
(-0.151211 0.0900548 0)
(-0.164099 0.0609857 0)
(-0.176243 0.022953 0)
(-0.186883 -0.0253137 0)
(-0.194488 -0.0837702 0)
(-0.196544 -0.149738 0)
(-0.188857 -0.216325 0)
(-0.166085 -0.268853 0)
(-0.123537 -0.283954 0)
(-0.0624972 -0.23013 0)
(-0.0091032 -0.0963625 0)
(-0.00348626 0.0561068 0)
(-0.0205235 0.123463 0)
(-0.0419454 0.158904 0)
(-0.0619987 0.171888 0)
(-0.0789002 0.172301 0)
(-0.0926966 0.165442 0)
(-0.103832 0.15467 0)
(-0.113172 0.140879 0)
(-0.121415 0.123683 0)
(-0.129246 0.101619 0)
(-0.137201 0.0726801 0)
(-0.145649 0.0346664 0)
(-0.154713 -0.0142918 0)
(-0.163828 -0.0752334 0)
(-0.171522 -0.147171 0)
(-0.173846 -0.225551 0)
(-0.164766 -0.29699 0)
(-0.134635 -0.335434 0)
(-0.0782198 -0.293029 0)
(-0.013775 -0.13495 0)
(-0.00540993 0.0692067 0)
(-0.0266242 0.144161 0)
(-0.0488626 0.179923 0)
(-0.0668821 0.189225 0)
(-0.0789077 0.185634 0)
(-0.0862765 0.175227 0)
(-0.0898513 0.161897 0)
(-0.0910742 0.146516 0)
(-0.0909496 0.128692 0)
(-0.0905669 0.106927 0)
(-0.0909401 0.079189 0)
(-0.0930925 0.0431514 0)
(-0.0980583 -0.00342843 0)
(-0.106367 -0.0625203 0)
(-0.118087 -0.134964 0)
(-0.130393 -0.21953 0)
(-0.138442 -0.306742 0)
(-0.128616 -0.372656 0)
(-0.0895064 -0.355353 0)
(-0.0198442 -0.184145 0)
(-0.00900294 0.0856001 0)
(-0.036967 0.165909 0)
(-0.0581756 0.198631 0)
(-0.0707988 0.201053 0)
(-0.0734988 0.191443 0)
(-0.0702461 0.176325 0)
(-0.0624754 0.159855 0)
(-0.0523827 0.142702 0)
(-0.0412141 0.124414 0)
(-0.0303726 0.103531 0)
(-0.0212022 0.0781366 0)
(-0.015199 0.0459989 0)
(-0.0141251 0.0047935 0)
(-0.0194592 -0.0479807 0)
(-0.0329618 -0.114615 0)
(-0.0535048 -0.197268 0)
(-0.0795326 -0.2923 0)
(-0.0957649 -0.383724 0)
(-0.0884125 -0.404067 0)
(-0.0263553 -0.240889 0)
(-0.0152798 0.11493 0)
(-0.0505872 0.193004 0)
(-0.0645816 0.214891 0)
(-0.0647416 0.204318 0)
(-0.0511401 0.185695 0)
(-0.0318055 0.164738 0)
(-0.00856254 0.144993 0)
(0.0157082 0.126477 0)
(0.039768 0.108443 0)
(0.0621466 0.0894473 0)
(0.0814502 0.0677433 0)
(0.096018 0.0413612 0)
(0.103707 0.00815691 0)
(0.102423 -0.0343949 0)
(0.0889785 -0.0893177 0)
(0.0626817 -0.161134 0)
(0.0203056 -0.252364 0)
(-0.0243417 -0.359686 0)
(-0.062261 -0.423737 0)
(-0.0298334 -0.299109 0)
(-0.0256224 0.14425 0)
(-0.0675621 0.209242 0)
(-0.0544449 0.211771 0)
(-0.026953 0.185735 0)
(0.0146247 0.15895 0)
(0.0569675 0.134426 0)
(0.0993722 0.11376 0)
(0.139144 0.0961096 0)
(0.175782 0.0803087 0)
(0.208332 0.0649876 0)
(0.235825 0.0486618 0)
(0.25686 0.0297872 0)
(0.269374 0.00665486 0)
(0.271032 -0.0227425 0)
(0.257867 -0.0612587 0)
(0.227558 -0.113741 0)
(0.172146 -0.186942 0)
(0.101013 -0.290629 0)
(0.00822453 -0.388938 0)
(-0.0188277 -0.333829 0)
(-0.0182054 0.216721 0)
(-0.0185009 0.217052 0)
(0.0569098 0.180792 0)
(0.126122 0.136899 0)
(0.198412 0.105138 0)
(0.261019 0.0820248 0)
(0.316724 0.0649135 0)
(0.364836 0.0519229 0)
(0.406312 0.0414114 0)
(0.441336 0.0321588 0)
(0.469765 0.0230645 0)
(0.490841 0.0131489 0)
(0.503066 0.00134797 0)
(0.504342 -0.0134776 0)
(0.491013 -0.0333782 0)
(0.45971 -0.0617243 0)
(0.400259 -0.106487 0)
(0.31379 -0.185563 0)
(0.167279 -0.295524 0)
(0.0417043 -0.334076 0)
(0.211822 0.130295 0)
(0.299021 0.101704 0)
(0.453555 0.0677092 0)
(0.545066 0.0439682 0)
(0.617952 0.0283239 0)
(0.671148 0.0189013 0)
(0.712054 0.0129313 0)
(0.743813 0.00908762 0)
(0.768809 0.00642366 0)
(0.788329 0.0043847 0)
(0.802944 0.00257845 0)
(0.812587 0.000729565 0)
(0.816598 -0.00142969 0)
(0.813697 -0.00411005 0)
(0.801662 -0.00786239 0)
(0.777164 -0.0132569 0)
(0.731866 -0.0227482 0)
(0.657244 -0.0408419 0)
(0.49741 -0.0745945 0)
(0.288204 -0.136431 0)
)
;

boundaryField
{
    movingWall
    {
        type            fixedValue;
        value           uniform (1 0 0);
    }
    fixedWalls
    {
        type            noSlip;
    }
    frontAndBack
    {
        type            empty;
    }
}


// ************************************************************************* //
