/*--------------------------------*- C++ -*----------------------------------*\
| =========                 |                                                 |
| \\      /  F ield         | OpenFOAM: The Open Source CFD Toolbox           |
|  \\    /   O peration     | Version:  4.1                                   |
|   \\  /    A nd           | Web:      www.OpenFOAM.org                      |
|    \\/     M anipulation  |                                                 |
\*---------------------------------------------------------------------------*/
FoamFile
{
    version     2.0;
    format      ascii;
    class       volVectorField;
    location    "0.17";
    object      U;
}
// * * * * * * * * * * * * * * * * * * * * * * * * * * * * * * * * * * * * * //

dimensions      [0 1 -1 0 0 0 0];

internalField   nonuniform List<vector> 
100
(
(-0.00138924 0.000734408 0)
(-0.00417216 0.00108313 0)
(-0.011913 0.00144813 0)
(-0.0163539 0.000660026 0)
(-0.0211796 0.000410868 0)
(-0.0225955 -0.000977884 0)
(-0.0206866 -0.00165007 0)
(-0.0164479 -0.00316096 0)
(-0.00669649 -0.00305102 0)
(-0.00224008 -0.00238161 0)
(-0.00294157 0.00487872 0)
(-0.010932 0.00937157 0)
(-0.0261684 0.011033 0)
(-0.0357267 0.00838971 0)
(-0.0445759 0.00623601 0)
(-0.0470942 0.000195579 0)
(-0.0433238 -0.00415207 0)
(-0.0343487 -0.0111153 0)
(-0.0158223 -0.0110418 0)
(-0.00416843 -0.00654075 0)
(-0.00381845 0.0146086 0)
(-0.0147856 0.024095 0)
(-0.0340519 0.0264781 0)
(-0.0466548 0.0186303 0)
(-0.0584761 0.0120821 0)
(-0.0627296 -0.00276031 0)
(-0.0596131 -0.0141999 0)
(-0.0487952 -0.0312224 0)
(-0.0247979 -0.033347 0)
(-0.00656735 -0.0226128 0)
(-0.00607678 0.0232988 0)
(-0.020605 0.0393153 0)
(-0.0450501 0.0430842 0)
(-0.0614755 0.0324746 0)
(-0.07704 0.0228328 0)
(-0.0847281 0.00112867 0)
(-0.0841323 -0.0173892 0)
(-0.0728849 -0.0459572 0)
(-0.0419559 -0.0527222 0)
(-0.0117142 -0.0374397 0)
(-0.00717102 0.0415184 0)
(-0.023827 0.0627379 0)
(-0.0518906 0.0678583 0)
(-0.0716827 0.0498823 0)
(-0.0923215 0.0357949 0)
(-0.105572 0.00335623 0)
(-0.111744 -0.0258706 0)
(-0.103575 -0.0746315 0)
(-0.0678415 -0.0951161 0)
(-0.0200525 -0.0772306 0)
(-0.0139708 0.0536922 0)
(-0.0367284 0.0833331 0)
(-0.0703941 0.0910675 0)
(-0.0946662 0.0722128 0)
(-0.119075 0.0574899 0)
(-0.137967 0.0201811 0)
(-0.152058 -0.0180795 0)
(-0.148246 -0.0897247 0)
(-0.109428 -0.135048 0)
(-0.0356141 -0.124493 0)
(-0.0153779 0.093146 0)
(-0.0377971 0.118411 0)
(-0.0711866 0.12702 0)
(-0.0937425 0.0971319 0)
(-0.117678 0.0799145 0)
(-0.135332 0.034387 0)
(-0.156087 -0.0152327 0)
(-0.157659 -0.119685 0)
(-0.131764 -0.209141 0)
(-0.0492991 -0.225803 0)
(-0.0398754 0.105099 0)
(-0.0702113 0.137613 0)
(-0.0836052 0.147312 0)
(-0.0894013 0.117501 0)
(-0.0906571 0.100588 0)
(-0.0884865 0.0578871 0)
(-0.10277 0.00705273 0)
(-0.103215 -0.113241 0)
(-0.110461 -0.239448 0)
(-0.0520785 -0.304003 0)
(-0.0362434 0.20637 0)
(-0.024778 0.160381 0)
(0.00954397 0.149726 0)
(0.0519786 0.102098 0)
(0.0858477 0.0812118 0)
(0.129894 0.0437265 0)
(0.137428 0.00164766 0)
(0.151879 -0.114564 0)
(0.0772548 -0.259432 0)
(0.0180302 -0.395984 0)
(0.147053 0.160395 0)
(0.235377 0.0890397 0)
(0.384449 0.0723246 0)
(0.461947 0.0404551 0)
(0.522856 0.0260636 0)
(0.571369 0.00695342 0)
(0.571679 -0.00783958 0)
(0.568565 -0.0470037 0)
(0.409352 -0.0914663 0)
(0.219935 -0.195087 0)
)
;

boundaryField
{
    movingWall
    {
        type            fixedValue;
        value           uniform (1 0 0);
    }
    fixedWalls
    {
        type            noSlip;
    }
    frontAndBack
    {
        type            empty;
    }
}


// ************************************************************************* //
