/*--------------------------------*- C++ -*----------------------------------*\
| =========                 |                                                 |
| \\      /  F ield         | OpenFOAM: The Open Source CFD Toolbox           |
|  \\    /   O peration     | Version:  4.1                                   |
|   \\  /    A nd           | Web:      www.OpenFOAM.org                      |
|    \\/     M anipulation  |                                                 |
\*---------------------------------------------------------------------------*/
FoamFile
{
    version     2.0;
    format      ascii;
    class       volVectorField;
    location    "0.0819";
    object      U;
}
// * * * * * * * * * * * * * * * * * * * * * * * * * * * * * * * * * * * * * //

dimensions      [0 1 -1 0 0 0 0];

internalField   nonuniform List<vector> 
441
(
(0.00368939 -0.00479496 0)
(0.00963019 -0.00253953 0)
(-0.000634883 -2.20355e-165 0)
(0.00194023 -3.28037e-266 0)
(-0.00838162 -0.00776134 0)
(-0.00194023 -3.02588e-232 0)
(-1.13454e-202 -5.52555e-203 0)
(-1.38129e-203 -7.24648e-228 0)
(-1.7033e-212 -3.16067e-213 0)
(-0.00608142 9.02577e-266 0)
(-0.0745026 0.0243269 0)
(-0.0936719 0.0127383 0)
(-0.10561 0.00584454 0)
(-0.0930523 0.000413231 0)
(-0.0767262 -0.00161987 0)
(-0.051287 -0.00298731 0)
(-0.0293279 -0.00214897 0)
(-0.00967852 -0.00161421 0)
(0.00233532 0.000698156 0)
(0.0042701 0.00145728 0)
(0.00451684 0.00295696 0)
(0.00377858 -0.00833845 0)
(-0.00102654 0.00679487 0)
(-0.0273583 0.00841336 0)
(-0.0589849 0.0106895 0)
(-0.106157 0.010768 0)
(-0.150683 -0.0032975 0)
(-0.192614 -0.000166328 0)
(-0.232954 0.00164043 0)
(-0.268787 0.0130984 0)
(-0.30492 0.0663256 0)
(-0.329544 0.0611007 0)
(-0.323955 0.0187893 0)
(-0.309321 -0.00705991 0)
(-0.26757 -0.0300785 0)
(-0.218446 -0.040326 0)
(-0.156374 -0.0457256 0)
(-0.100157 -0.0392823 0)
(-0.0499856 -0.0313268 0)
(-0.0159827 -0.0141278 0)
(-0.00143208 -0.00436499 0)
(0.00487825 0.00605554 0)
(0.00751228 -0.00805569 0)
(-0.00521511 0.0282099 0)
(-0.0539287 0.0565686 0)
(-0.119969 0.0762629 0)
(-0.200677 0.0827676 0)
(-0.284221 0.0823315 0)
(-0.374028 0.0793982 0)
(-0.447134 0.0736949 0)
(-0.51896 0.069207 0)
(-0.554196 0.0653209 0)
(-0.550323 0.0442942 0)
(-0.532497 -0.00623655 0)
(-0.49605 -0.0498534 0)
(-0.431557 -0.0902604 0)
(-0.354541 -0.111843 0)
(-0.261176 -0.121564 0)
(-0.174453 -0.107347 0)
(-0.0949049 -0.0863113 0)
(-0.0387506 -0.0467483 0)
(-0.00839622 -0.0198509 0)
(0.00630414 0.00679568 0)
(0.00631606 -0.0109599 0)
(-0.016094 0.0699962 0)
(-0.0963072 0.123134 0)
(-0.190959 0.159867 0)
(-0.30251 0.175387 0)
(-0.414844 0.172817 0)
(-0.525562 0.164473 0)
(-0.62149 0.147486 0)
(-0.70047 0.122628 0)
(-0.747119 0.0949749 0)
(-0.756614 0.0391313 0)
(-0.733331 -0.0366258 0)
(-0.684111 -0.108169 0)
(-0.599064 -0.172786 0)
(-0.496821 -0.210552 0)
(-0.372613 -0.227369 0)
(-0.255193 -0.204995 0)
(-0.14427 -0.168725 0)
(-0.0641505 -0.0997517 0)
(-0.0158839 -0.0508141 0)
(0.00795617 0.0043498 0)
(6.87126e-165 0.00157902 0)
(-0.024393 0.130376 0)
(-0.139891 0.230637 0)
(-0.258203 0.280999 0)
(-0.398961 0.305528 0)
(-0.535865 0.30351 0)
(-0.672174 0.284701 0)
(-0.787779 0.247479 0)
(-0.883841 0.194086 0)
(-0.940782 0.12218 0)
(-0.958154 0.0309179 0)
(-0.936152 -0.0784786 0)
(-0.879233 -0.183353 0)
(-0.77827 -0.277917 0)
(-0.652932 -0.337208 0)
(-0.496266 -0.364113 0)
(-0.345713 -0.33419 0)
(-0.196591 -0.278505 0)
(-0.0898565 -0.173405 0)
(-0.0182457 -0.0928502 0)
(0.0145663 -0.000342808 0)
(-5.57016e-266 0.00575547 0)
(-0.0890887 0.214666 0)
(-0.195476 0.354919 0)
(-0.337544 0.420793 0)
(-0.491648 0.452902 0)
(-0.649622 0.447109 0)
(-0.802276 0.417019 0)
(-0.93712 0.359409 0)
(-1.04847 0.276529 0)
(-1.12277 0.168493 0)
(-1.15741 0.0348027 0)
(-1.14376 -0.116591 0)
(-1.08778 -0.265807 0)
(-0.975794 -0.400751 0)
(-0.830348 -0.49212 0)
(-0.64 -0.537126 0)
(-0.452246 -0.503618 0)
(-0.25833 -0.427784 0)
(-0.119467 -0.27609 0)
(-0.0204131 -0.158492 0)
(0.0161346 0.00201307 0)
(-0.0230219 0.0938948 0)
(-0.124203 0.322253 0)
(-0.246746 0.479454 0)
(-0.403069 0.575303 0)
(-0.576185 0.61675 0)
(-0.752637 0.61263 0)
(-0.92563 0.571342 0)
(-1.08055 0.492707 0)
(-1.21294 0.379476 0)
(-1.30783 0.230862 0)
(-1.36252 0.0523994 0)
(-1.36373 -0.148434 0)
(-1.31546 -0.35032 0)
(-1.19886 -0.53633 0)
(-1.03779 -0.671544 0)
(-0.812739 -0.744161 0)
(-0.585153 -0.71358 0)
(-0.333136 -0.613799 0)
(-0.159423 -0.408036 0)
(-0.00734587 -0.230328 0)
(5.96062e-266 -0.00403364 0)
(-0.0169871 0.155443 0)
(-0.118936 0.439555 0)
(-0.269696 0.634322 0)
(-0.446542 0.751003 0)
(-0.639565 0.802672 0)
(-0.835188 0.796826 0)
(-1.02675 0.745217 0)
(-1.2028 0.646573 0)
(-1.35743 0.50423 0)
(-1.47751 0.317498 0)
(-1.55827 0.0911355 0)
(-1.58225 -0.164754 0)
(-1.55118 -0.430161 0)
(-1.43945 -0.680695 0)
(-1.27039 -0.877566 0)
(-1.01503 -0.994015 0)
(-0.745132 -0.981591 0)
(-0.429834 -0.859959 0)
(-0.207043 -0.59723 0)
(-0.00363882 -0.327515 0)
(2.59308e-24 -1.07486e-24 0)
(-0.0150907 0.22616 0)
(-0.122534 0.573074 0)
(-0.289975 0.8054 0)
(-0.481683 0.943268 0)
(-0.69104 1.00402 0)
(-0.901998 0.99815 0)
(-1.1103 0.93799 0)
(-1.30547 0.822186 0)
(-1.48231 0.653908 0)
(-1.62858 0.431026 0)
(-1.73814 0.15772 0)
(-1.79145 -0.156085 0)
(-1.78669 -0.491679 0)
(-1.69181 -0.818473 0)
(-1.52702 -1.09377 0)
(-1.25098 -1.27273 0)
(-0.943359 -1.29512 0)
(-0.559336 -1.15735 0)
(-0.277714 -0.826413 0)
(-0.00496865 -0.44539 0)
(1.0556e-76 -6.48271e-25 0)
(-0.013109 0.293631 0)
(-0.120062 0.716151 0)
(-0.296807 0.994174 0)
(-0.497082 1.15262 0)
(-0.716193 1.22337 0)
(-0.936721 1.216 0)
(-1.15535 1.14889 0)
(-1.36452 1.01812 0)
(-1.55884 0.827492 0)
(-1.72909 0.572596 0)
(-1.86763 0.254341 0)
(-1.95471 -0.11741 0)
(-1.98494 -0.529124 0)
(-1.92061 -0.943047 0)
(-1.77619 -1.31753 0)
(-1.49642 -1.58376 0)
(-1.16163 -1.67173 0)
(-0.711025 -1.53613 0)
(-0.361766 -1.14591 0)
(-0.00712425 -0.620753 0)
(2.93542e-164 -2.63901e-77 0)
(-0.0131113 0.355855 0)
(-0.120899 0.855002 0)
(-0.302755 1.18007 0)
(-0.505881 1.36034 0)
(-0.72678 1.44191 0)
(-0.948135 1.43523 0)
(-1.16702 1.36463 0)
(-1.38012 1.22415 0)
(-1.58167 1.01805 0)
(-1.76775 0.738946 0)
(-1.9291 0.383943 0)
(-2.04982 -0.0391824 0)
(-2.1201 -0.52374 0)
(-2.10057 -1.02817 0)
(-1.99668 -1.51453 0)
(-1.73955 -1.89119 0)
(-1.40174 -2.07554 0)
(-0.902949 -1.96567 0)
(-0.486617 -1.51851 0)
(-0.0806592 -0.820548 0)
(1.78465e-265 0.0132864 0)
(-0.0136189 0.428531 0)
(-0.117566 1.00797 0)
(-0.296858 1.38062 0)
(-0.493496 1.57732 0)
(-0.704869 1.66675 0)
(-0.914907 1.65617 0)
(-1.12019 1.5815 0)
(-1.32293 1.4323 0)
(-1.51656 1.21529 0)
(-1.7044 0.919319 0)
(-1.87638 0.536504 0)
(-2.02342 0.0725906 0)
(-2.13312 -0.477738 0)
(-2.16805 -1.06868 0)
(-2.12425 -1.67733 0)
(-1.92018 -2.18532 0)
(-1.6091 -2.50708 0)
(-1.08181 -2.46576 0)
(-0.585231 -1.96229 0)
(-0.0758838 -1.12728 0)
(0.0531456 -0.0763905 0)
(-0.0168578 0.482653 0)
(-0.120832 1.13529 0)
(-0.298965 1.55309 0)
(-0.484581 1.76504 0)
(-0.675262 1.8615 0)
(-0.860342 1.84798 0)
(-1.03343 1.77172 0)
(-1.20678 1.619 0)
(-1.37052 1.39929 0)
(-1.53984 1.09829 0)
(-1.70172 0.703748 0)
(-1.86086 0.218055 0)
(-1.99987 -0.376392 0)
(-2.09397 -1.03619 0)
(-2.12568 -1.75691 0)
(-2.0089 -2.40805 0)
(-1.77273 -2.9072 0)
(-1.24288 -2.9985 0)
(-0.714719 -2.518 0)
(0.0427789 -1.46615 0)
(2.45463e-231 -0.0132864 0)
(-0.0213572 0.569188 0)
(-0.122473 1.29313 0)
(-0.292165 1.74827 0)
(-0.456357 1.95474 0)
(-0.612438 2.04572 0)
(-0.756759 2.01475 0)
(-0.87936 1.92999 0)
(-1.00324 1.76957 0)
(-1.1148 1.54921 0)
(-1.24166 1.25064 0)
(-1.36879 0.857561 0)
(-1.51617 0.37085 0)
(-1.66557 -0.244597 0)
(-1.80956 -0.943212 0)
(-1.92503 -1.76128 0)
(-1.93188 -2.54239 0)
(-1.83009 -3.27149 0)
(-1.4044 -3.54199 0)
(-0.892547 -3.24144 0)
(-0.00303759 -1.8798 0)
(5.8139e-202 4.58113e-184 0)
(-0.0372864 0.619578 0)
(-0.153106 1.40005 0)
(-0.324438 1.88327 0)
(-0.465741 2.07992 0)
(-0.569927 2.16048 0)
(-0.655486 2.11165 0)
(-0.701107 2.01813 0)
(-0.751508 1.8534 0)
(-0.782404 1.63842 0)
(-0.840933 1.3532 0)
(-0.903032 0.979775 0)
(-1.01338 0.51755 0)
(-1.14244 -0.0796104 0)
(-1.32298 -0.772545 0)
(-1.50622 -1.6264 0)
(-1.67151 -2.49954 0)
(-1.73992 -3.41804 0)
(-1.53113 -3.94458 0)
(-1.10909 -3.89577 0)
(-0.0114137 -2.38906 0)
(1.83245e-183 -1.28067e-184 0)
(-0.0559286 0.767766 0)
(-0.187237 1.58461 0)
(-0.34954 2.07048 0)
(-0.454262 2.2017 0)
(-0.489956 2.24276 0)
(-0.49901 2.14678 0)
(-0.450028 2.03044 0)
(-0.407582 1.85182 0)
(-0.338027 1.64063 0)
(-0.304642 1.37282 0)
(-0.276319 1.03014 0)
(-0.316603 0.612795 0)
(-0.391728 0.0634852 0)
(-0.56477 -0.575872 0)
(-0.788472 -1.41576 0)
(-1.08846 -2.30504 0)
(-1.38125 -3.41648 0)
(-1.49987 -4.17947 0)
(-1.39857 -4.778 0)
(-0.465587 -3.03612 0)
(4.39921e-254 -4.58113e-184 0)
(-0.121748 0.849005 0)
(-0.320864 1.6806 0)
(-0.475021 2.14534 0)
(-0.531078 2.21074 0)
(-0.448878 2.20463 0)
(-0.347043 2.06687 0)
(-0.159789 1.92779 0)
(0.00509818 1.74053 0)
(0.205363 1.5372 0)
(0.351967 1.29408 0)
(0.494974 0.994128 0)
(0.541934 0.639079 0)
(0.552188 0.172368 0)
(0.401855 -0.366342 0)
(0.193203 -1.09468 0)
(-0.264325 -1.8957 0)
(-0.716128 -2.98051 0)
(-1.4576 -3.92609 0)
(-1.6476 -4.83932 0)
(-2.07266 -3.86392 0)
(-2.58893e-264 -0.215838 0)
(-0.178134 1.23207 0)
(-0.41798 1.94228 0)
(-0.50655 2.30314 0)
(-0.462019 2.17578 0)
(-0.225886 2.07256 0)
(0.0198264 1.85724 0)
(0.361929 1.68488 0)
(0.664997 1.48677 0)
(1.00185 1.29596 0)
(1.26971 1.08511 0)
(1.53057 0.83978 0)
(1.67958 0.560689 0)
(1.78752 0.200278 0)
(1.71249 -0.207372 0)
(1.56238 -0.760498 0)
(1.11776 -1.37945 0)
(0.581787 -2.25479 0)
(-0.349244 -3.20408 0)
(-1.0824 -4.25336 0)
(-1.84194 -4.53354 0)
(-0.863352 -2.31598 0)
(-0.400515 1.41092 0)
(-0.726324 1.98036 0)
(-0.52107 2.18362 0)
(-0.241941 1.91307 0)
(0.312876 1.72369 0)
(0.775526 1.47099 0)
(1.32968 1.28455 0)
(1.78603 1.09854 0)
(2.26055 0.93447 0)
(2.63342 0.768376 0)
(2.99028 0.586758 0)
(3.2119 0.390909 0)
(3.39505 0.142959 0)
(3.36674 -0.125595 0)
(3.28651 -0.496469 0)
(2.85771 -0.893295 0)
(2.38382 -1.51454 0)
(1.36086 -2.23254 0)
(0.456257 -3.35216 0)
(-0.707639 -4.00493 0)
(-0.701099 -2.96392 0)
(-0.257217 2.42086 0)
(-0.104139 2.05748 0)
(0.682594 1.86914 0)
(1.32903 1.33363 0)
(2.14472 1.07511 0)
(2.77181 0.833259 0)
(3.42633 0.680342 0)
(3.94018 0.551555 0)
(4.44131 0.44903 0)
(4.82413 0.355117 0)
(5.17909 0.259831 0)
(5.39862 0.161355 0)
(5.58076 0.0421905 0)
(5.56684 -0.0859838 0)
(5.51481 -0.261491 0)
(5.14887 -0.455303 0)
(4.75947 -0.789533 0)
(3.82831 -1.24433 0)
(2.86536 -2.25341 0)
(1.09186 -3.33015 0)
(-0.0461859 -3.79895 0)
(1.66725 1.66956 0)
(2.70286 0.974604 0)
(4.54292 0.748315 0)
(5.38148 0.423742 0)
(6.24882 0.28634 0)
(6.75915 0.177995 0)
(7.2392 0.121242 0)
(7.56322 0.080916 0)
(7.86185 0.0545043 0)
(8.065 0.0339559 0)
(8.2476 0.0156223 0)
(8.33745 -0.00162784 0)
(8.41038 -0.0227274 0)
(8.35309 -0.0435301 0)
(8.29236 -0.0788523 0)
(8.00561 -0.111806 0)
(7.75003 -0.200936 0)
(6.99611 -0.293427 0)
(6.26257 -0.625263 0)
(4.04593 -0.997425 0)
(2.00535 -1.81804 0)
)
;

boundaryField
{
    movingWall
    {
        type            fixedValue;
        value           uniform (10 0 0);
    }
    fixedWalls
    {
        type            noSlip;
    }
    frontAndBack
    {
        type            empty;
    }
}


// ************************************************************************* //
