/*--------------------------------*- C++ -*----------------------------------*\
| =========                 |                                                 |
| \\      /  F ield         | OpenFOAM: The Open Source CFD Toolbox           |
|  \\    /   O peration     | Version:  4.1                                   |
|   \\  /    A nd           | Web:      www.OpenFOAM.org                      |
|    \\/     M anipulation  |                                                 |
\*---------------------------------------------------------------------------*/
FoamFile
{
    version     2.0;
    format      ascii;
    class       volVectorField;
    location    "0.036";
    object      U;
}
// * * * * * * * * * * * * * * * * * * * * * * * * * * * * * * * * * * * * * //

dimensions      [0 1 -1 0 0 0 0];

internalField   nonuniform List<vector> 
6400
(
(6.21066e-06 -6.1769e-06 0)
(2.28027e-05 -8.18454e-06 0)
(3.50568e-05 -4.23725e-06 0)
(3.80639e-05 4.21809e-06 0)
(2.8594e-05 1.5479e-05 0)
(4.86154e-06 2.82627e-05 0)
(-3.3903e-05 4.16566e-05 0)
(-8.77476e-05 5.5027e-05 0)
(-0.000156221 6.79384e-05 0)
(-0.000238534 8.00956e-05 0)
(-0.000333668 9.13026e-05 0)
(-0.00044046 0.000101434 0)
(-0.000557655 0.000110413 0)
(-0.000683949 0.000118202 0)
(-0.000818022 0.000124785 0)
(-0.000958552 0.00013017 0)
(-0.00110424 0.000134374 0)
(-0.0012538 0.000137425 0)
(-0.00140601 0.000139361 0)
(-0.00155966 0.000140221 0)
(-0.00171362 0.00014005 0)
(-0.00186679 0.000138896 0)
(-0.00201811 0.000136807 0)
(-0.00216661 0.000133833 0)
(-0.00231135 0.000130024 0)
(-0.00245145 0.00012543 0)
(-0.00258608 0.000120102 0)
(-0.00271448 0.00011409 0)
(-0.00283592 0.000107443 0)
(-0.00294974 0.00010021 0)
(-0.00305534 9.24403e-05 0)
(-0.00315216 8.41818e-05 0)
(-0.00323969 7.54822e-05 0)
(-0.00331748 6.63893e-05 0)
(-0.00338513 5.69504e-05 0)
(-0.0034423 4.72128e-05 0)
(-0.00348867 3.72239e-05 0)
(-0.00352401 2.70315e-05 0)
(-0.00354812 1.66835e-05 0)
(-0.00356086 6.22849e-06 0)
(-0.00356214 -4.28429e-06 0)
(-0.00355192 -1.48048e-05 0)
(-0.00353023 -2.52823e-05 0)
(-0.00349713 -3.56647e-05 0)
(-0.00345276 -4.58993e-05 0)
(-0.00339731 -5.59319e-05 0)
(-0.00333102 -6.57074e-05 0)
(-0.00325421 -7.51697e-05 0)
(-0.00316724 -8.42615e-05 0)
(-0.00307055 -9.29247e-05 0)
(-0.00296464 -0.0001011 0)
(-0.00285006 -0.000108729 0)
(-0.00272743 -0.00011575 0)
(-0.00259746 -0.000122104 0)
(-0.0024609 -0.00012773 0)
(-0.00231856 -0.00013257 0)
(-0.00217133 -0.000136564 0)
(-0.00202017 -0.000139655 0)
(-0.00186607 -0.000141788 0)
(-0.00171012 -0.00014291 0)
(-0.00155343 -0.000142971 0)
(-0.00139719 -0.000141925 0)
(-0.00124261 -0.000139731 0)
(-0.00109098 -0.000136356 0)
(-0.000943592 -0.000131771 0)
(-0.000801777 -0.000125959 0)
(-0.000666884 -0.000118916 0)
(-0.000540261 -0.000110653 0)
(-0.000423239 -0.000101201 0)
(-0.000317111 -9.06199e-05 0)
(-0.0002231 -7.90063e-05 0)
(-0.000142315 -6.6508e-05 0)
(-7.5696e-05 -5.3343e-05 0)
(-2.3932e-05 -3.98273e-05 0)
(1.26477e-05 -2.64152e-05 0)
(3.423e-05 -1.37541e-05 0)
(4.17332e-05 -2.76172e-06 0)
(3.70889e-05 5.29049e-06 0)
(2.36451e-05 8.74759e-06 0)
(6.36237e-06 6.30551e-06 0)
(8.33737e-06 -2.27422e-05 0)
(3.1036e-05 -3.05877e-05 0)
(3.9881e-05 -1.16808e-05 0)
(2.35485e-05 2.4947e-05 0)
(-2.56531e-05 7.2414e-05 0)
(-0.000112161 0.000125732 0)
(-0.000238048 0.00018135 0)
(-0.00040363 0.000236772 0)
(-0.000607946 0.000290261 0)
(-0.000849123 0.000340628 0)
(-0.00112464 0.000387075 0)
(-0.00143155 0.00042908 0)
(-0.0017666 0.000466327 0)
(-0.00212637 0.000498645 0)
(-0.00250733 0.000525968 0)
(-0.00290594 0.000548311 0)
(-0.00331867 0.000565744 0)
(-0.00374203 0.00057838 0)
(-0.00417262 0.000586361 0)
(-0.00460715 0.000589854 0)
(-0.00504244 0.000589039 0)
(-0.00547542 0.000584112 0)
(-0.00590318 0.000575271 0)
(-0.00632295 0.000562722 0)
(-0.00673209 0.000546675 0)
(-0.00712813 0.000527337 0)
(-0.00750872 0.000504919 0)
(-0.0078717 0.00047963 0)
(-0.00821503 0.000451676 0)
(-0.00853683 0.000421264 0)
(-0.00883537 0.000388598 0)
(-0.00910908 0.000353879 0)
(-0.00935651 0.000317309 0)
(-0.00957638 0.000279087 0)
(-0.00976756 0.000239414 0)
(-0.00992906 0.000198488 0)
(-0.01006 0.000156508 0)
(-0.0101597 0.000113676 0)
(-0.0102277 7.01924e-05 0)
(-0.0102635 2.62624e-05 0)
(-0.0102668 -1.79075e-05 0)
(-0.0102377 -6.2107e-05 0)
(-0.010176 -0.000106122 0)
(-0.0100822 -0.000149736 0)
(-0.00995647 -0.000192725 0)
(-0.00979946 -0.000234864 0)
(-0.00961185 -0.000275922 0)
(-0.00939454 -0.000315662 0)
(-0.00914858 -0.000353846 0)
(-0.0088752 -0.000390229 0)
(-0.00857582 -0.000424567 0)
(-0.00825202 -0.000456608 0)
(-0.00790559 -0.000486104 0)
(-0.00753847 -0.000512803 0)
(-0.00715279 -0.000536454 0)
(-0.00675088 -0.000556811 0)
(-0.00633521 -0.000573628 0)
(-0.00590846 -0.00058667 0)
(-0.00547344 -0.000595705 0)
(-0.00503314 -0.000600515 0)
(-0.0045907 -0.000600896 0)
(-0.00414937 -0.000596658 0)
(-0.00371257 -0.000587637 0)
(-0.00328376 -0.000573691 0)
(-0.00286654 -0.000554713 0)
(-0.00246452 -0.000530637 0)
(-0.00208135 -0.000501449 0)
(-0.00172065 -0.000467201 0)
(-0.00138596 -0.000428032 0)
(-0.00108069 -0.000384193 0)
(-0.000807988 -0.000336087 0)
(-0.000570681 -0.000284322 0)
(-0.000371087 -0.000229786 0)
(-0.000210829 -0.000173752 0)
(-9.0566e-05 -0.000118029 0)
(-9.64551e-06 -6.51646e-05 0)
(3.43625e-05 -1.873e-05 0)
(4.62384e-05 1.63323e-05 0)
(3.39519e-05 3.33013e-05 0)
(8.973e-06 2.35294e-05 0)
(4.57501e-06 -3.51494e-05 0)
(1.2852e-05 -3.94798e-05 0)
(-4.06831e-06 5.70177e-06 0)
(-6.07073e-05 8.36779e-05 0)
(-0.000167331 0.000181918 0)
(-0.000330068 0.000291221 0)
(-0.000551917 0.000404907 0)
(-0.000833448 0.000518177 0)
(-0.0011734 0.000627619 0)
(-0.00156916 0.00073084 0)
(-0.0020171 0.000826192 0)
(-0.00251291 0.000912576 0)
(-0.00305177 0.000989294 0)
(-0.00362854 0.00105595 0)
(-0.0042379 0.00111236 0)
(-0.00487444 0.00115851 0)
(-0.00553273 0.00119452 0)
(-0.0062074 0.00122059 0)
(-0.00689317 0.00123698 0)
(-0.00758491 0.00124402 0)
(-0.00827763 0.00124207 0)
(-0.00896654 0.00123152 0)
(-0.00964705 0.00121276 0)
(-0.0103148 0.00118624 0)
(-0.0109656 0.00115236 0)
(-0.0115955 0.00111157 0)
(-0.0122008 0.00106429 0)
(-0.0127782 0.00101097 0)
(-0.0133242 0.000952029 0)
(-0.013836 0.000887909 0)
(-0.0143109 0.000819034 0)
(-0.0147461 0.000745831 0)
(-0.0151396 0.000668723 0)
(-0.0154892 0.000588133 0)
(-0.0157932 0.000504481 0)
(-0.0160498 0.000418189 0)
(-0.0162579 0.000329679 0)
(-0.0164163 0.000239375 0)
(-0.0165241 0.000147704 0)
(-0.0165808 5.51005e-05 0)
(-0.0165858 -3.79997e-05 0)
(-0.0165391 -0.000131152 0)
(-0.0164407 -0.000223904 0)
(-0.0162912 -0.000315796 0)
(-0.0160909 -0.00040636 0)
(-0.015841 -0.000495119 0)
(-0.0155424 -0.000581586 0)
(-0.0151966 -0.000665265 0)
(-0.0148053 -0.000745655 0)
(-0.0143706 -0.000822243 0)
(-0.0138945 -0.000894515 0)
(-0.0133797 -0.00096195 0)
(-0.012829 -0.00102402 0)
(-0.0122454 -0.00108021 0)
(-0.0116325 -0.00113 0)
(-0.0109938 -0.00117287 0)
(-0.0103332 -0.00120832 0)
(-0.009655 -0.00123585 0)
(-0.00896362 -0.00125501 0)
(-0.00826375 -0.00126533 0)
(-0.00756029 -0.00126641 0)
(-0.00685836 -0.00125787 0)
(-0.00616325 -0.00123938 0)
(-0.00548038 -0.00121067 0)
(-0.0048153 -0.00117155 0)
(-0.00417358 -0.00112189 0)
(-0.00356082 -0.00106172 0)
(-0.00298254 -0.000991168 0)
(-0.00244409 -0.000910564 0)
(-0.00195058 -0.00082047 0)
(-0.0015067 -0.000721753 0)
(-0.00111657 -0.000615688 0)
(-0.00078353 -0.000504096 0)
(-0.000509832 -0.000389532 0)
(-0.000296312 -0.00027555 0)
(-0.000141921 -0.00016705 0)
(-4.31604e-05 -7.07492e-05 0)
(6.58008e-06 4.22167e-06 0)
(1.79664e-05 4.55761e-05 0)
(5.77073e-06 3.7126e-05 0)
(-3.62787e-06 -3.86118e-05 0)
(-2.27742e-05 -2.37907e-05 0)
(-8.02945e-05 6.21011e-05 0)
(-0.000191899 0.000195715 0)
(-0.000368957 0.000359215 0)
(-0.000618335 0.0005392 0)
(-0.000943417 0.000725707 0)
(-0.00134479 0.000911405 0)
(-0.00182089 0.00109096 0)
(-0.00236847 0.00126054 0)
(-0.00298304 0.00141744 0)
(-0.00365917 0.00155981 0)
(-0.0043908 0.00168644 0)
(-0.00517137 0.00179658 0)
(-0.00599407 0.00188989 0)
(-0.00685193 0.00196625 0)
(-0.0077379 0.00202581 0)
(-0.008645 0.00206884 0)
(-0.00956632 0.00209574 0)
(-0.0104951 0.00210702 0)
(-0.0114248 0.00210324 0)
(-0.0123491 0.00208503 0)
(-0.0132619 0.00205304 0)
(-0.0141574 0.00200796 0)
(-0.0150301 0.0019505 0)
(-0.0158747 0.00188136 0)
(-0.0166862 0.00180128 0)
(-0.0174602 0.00171098 0)
(-0.0181922 0.00161119 0)
(-0.0188782 0.00150262 0)
(-0.0195146 0.00138601 0)
(-0.020098 0.00126207 0)
(-0.0206253 0.00113152 0)
(-0.0210937 0.00099507 0)
(-0.021501 0.00085344 0)
(-0.0218448 0.000707343 0)
(-0.0221235 0.000557496 0)
(-0.0223355 0.000404619 0)
(-0.0224797 0.000249441 0)
(-0.0225553 9.26946e-05 0)
(-0.0225617 -6.48764e-05 0)
(-0.0224987 -0.000222518 0)
(-0.0223666 -0.000379463 0)
(-0.0221659 -0.000534933 0)
(-0.0218972 -0.000688134 0)
(-0.021562 -0.000838259 0)
(-0.0211616 -0.000984485 0)
(-0.020698 -0.00112598 0)
(-0.0201736 -0.00126189 0)
(-0.0195909 -0.00139136 0)
(-0.0189529 -0.00151352 0)
(-0.0182631 -0.00162749 0)
(-0.0175253 -0.00173241 0)
(-0.0167435 -0.00182739 0)
(-0.0159222 -0.00191157 0)
(-0.0150665 -0.0019841 0)
(-0.0141814 -0.00204413 0)
(-0.0132726 -0.00209086 0)
(-0.012346 -0.00212352 0)
(-0.0114077 -0.00214137 0)
(-0.0104643 -0.00214374 0)
(-0.00952255 -0.00213004 0)
(-0.00858929 -0.00209973 0)
(-0.00767168 -0.00205241 0)
(-0.00677696 -0.00198779 0)
(-0.00591238 -0.00190574 0)
(-0.0050852 -0.00180632 0)
(-0.00430252 -0.00168983 0)
(-0.00357122 -0.00155689 0)
(-0.00289779 -0.00140847 0)
(-0.00228817 -0.00124607 0)
(-0.00174754 -0.00107182 0)
(-0.00128005 -0.000888701 0)
(-0.00088849 -0.000700797 0)
(-0.000573924 -0.000513665 0)
(-0.000335176 -0.000334798 0)
(-0.000168253 -0.000174228 0)
(-6.56891e-05 -4.52827e-05 0)
(-1.55998e-05 3.44833e-05 0)
(-1.90315e-06 4.23031e-05 0)
(-1.46262e-05 -2.99751e-05 0)
(-6.92173e-05 2.40685e-05 0)
(-0.000176848 0.000167729 0)
(-0.000353257 0.000372442 0)
(-0.000609874 0.000615815 0)
(-0.000953513 0.000880596 0)
(-0.0013874 0.00115365 0)
(-0.00191183 0.00142508 0)
(-0.00252477 0.00168753 0)
(-0.00322235 0.00193559 0)
(-0.00399929 0.00216536 0)
(-0.00484922 0.0023741 0)
(-0.00576498 0.00255995 0)
(-0.00673886 0.00272176 0)
(-0.00776278 0.0028589 0)
(-0.0088284 0.00297114 0)
(-0.00992734 0.00305859 0)
(-0.0110512 0.0031216 0)
(-0.0121916 0.00316069 0)
(-0.0133405 0.00317656 0)
(-0.0144899 0.00317 0)
(-0.0156321 0.00314191 0)
(-0.0167598 0.00309322 0)
(-0.0178657 0.00302495 0)
(-0.0189432 0.00293811 0)
(-0.0199858 0.00283377 0)
(-0.0209876 0.002713 0)
(-0.0219428 0.00257686 0)
(-0.0228461 0.00242645 0)
(-0.0236926 0.00226284 0)
(-0.0244778 0.00208713 0)
(-0.0251976 0.00190038 0)
(-0.025848 0.00170368 0)
(-0.0264259 0.0014981 0)
(-0.0269281 0.00128471 0)
(-0.0273521 0.00106461 0)
(-0.0276956 0.000838871 0)
(-0.027957 0.00060858 0)
(-0.0281346 0.000374837 0)
(-0.0282275 0.00013875 0)
(-0.0282351 -9.85579e-05 0)
(-0.0281572 -0.000335948 0)
(-0.027994 -0.000572266 0)
(-0.027746 -0.000806335 0)
(-0.0274144 -0.00103696 0)
(-0.0270007 -0.00126293 0)
(-0.0265066 -0.00148301 0)
(-0.0259347 -0.00169593 0)
(-0.0252877 -0.00190044 0)
(-0.0245689 -0.00209524 0)
(-0.0237819 -0.00227904 0)
(-0.0229311 -0.00245053 0)
(-0.0220209 -0.00260841 0)
(-0.0210566 -0.00275137 0)
(-0.0200435 -0.00287812 0)
(-0.0189877 -0.00298741 0)
(-0.0178956 -0.003078 0)
(-0.016774 -0.0031487 0)
(-0.0156301 -0.00319837 0)
(-0.0144714 -0.00322596 0)
(-0.0133058 -0.0032305 0)
(-0.0121415 -0.00321112 0)
(-0.0109869 -0.0031671 0)
(-0.00985046 -0.00309788 0)
(-0.00874102 -0.00300309 0)
(-0.00766724 -0.00288261 0)
(-0.00663779 -0.00273659 0)
(-0.00566115 -0.00256557 0)
(-0.00474547 -0.00237052 0)
(-0.00389844 -0.00215297 0)
(-0.00312704 -0.00191517 0)
(-0.00243738 -0.00166025 0)
(-0.00183436 -0.0013925 0)
(-0.00132134 -0.0011177 0)
(-0.000899771 -0.000843524 0)
(-0.000568695 -0.000580102 0)
(-0.000324178 -0.000340693 0)
(-0.000158699 -0.000142502 0)
(-6.01944e-05 -7.65101e-06 0)
(-1.2428e-05 3.58633e-05 0)
(-2.72264e-05 -7.43645e-06 0)
(-0.00012187 0.00010869 0)
(-0.000285335 0.000329076 0)
(-0.000532766 0.000621328 0)
(-0.000874968 0.000959378 0)
(-0.0013181 0.00132265 0)
(-0.00186476 0.00169511 0)
(-0.00251463 0.00206444 0)
(-0.00326499 0.00242126 0)
(-0.00411128 0.00275855 0)
(-0.0050474 0.00307113 0)
(-0.00606612 0.00335529 0)
(-0.00715931 0.00360846 0)
(-0.00831822 0.00382898 0)
(-0.00953363 0.00401589 0)
(-0.0107961 0.00416879 0)
(-0.012096 0.00428773 0)
(-0.0134237 0.00437309 0)
(-0.0147697 0.00442554 0)
(-0.0161246 0.00444595 0)
(-0.0174792 0.00443538 0)
(-0.0188246 0.00439499 0)
(-0.0201522 0.00432606 0)
(-0.0214539 0.00422993 0)
(-0.0227218 0.00410801 0)
(-0.0239483 0.00396173 0)
(-0.0251265 0.00379257 0)
(-0.0262498 0.00360201 0)
(-0.0273119 0.00339154 0)
(-0.028307 0.00316267 0)
(-0.02923 0.00291689 0)
(-0.0300759 0.00265572 0)
(-0.0308404 0.00238065 0)
(-0.0315194 0.00209319 0)
(-0.0321095 0.00179484 0)
(-0.0326076 0.00148711 0)
(-0.0330112 0.00117151 0)
(-0.033318 0.000849576 0)
(-0.0335266 0.000522836 0)
(-0.0336356 0.000192845 0)
(-0.0336443 -0.000138826 0)
(-0.0335526 -0.000470586 0)
(-0.0333606 -0.000800817 0)
(-0.0330691 -0.00112788 0)
(-0.0326793 -0.0014501 0)
(-0.032193 -0.00176579 0)
(-0.0316124 -0.00207323 0)
(-0.0309404 -0.00237066 0)
(-0.0301801 -0.00265632 0)
(-0.0293354 -0.00292843 0)
(-0.0284107 -0.00318517 0)
(-0.0274108 -0.00342475 0)
(-0.0263411 -0.00364535 0)
(-0.0252077 -0.00384519 0)
(-0.0240168 -0.00402248 0)
(-0.0227755 -0.00417549 0)
(-0.0214912 -0.00430254 0)
(-0.0201719 -0.00440199 0)
(-0.0188257 -0.0044723 0)
(-0.0174616 -0.00451205 0)
(-0.0160886 -0.00451994 0)
(-0.0147161 -0.00449481 0)
(-0.0133538 -0.00443574 0)
(-0.0120116 -0.004342 0)
(-0.0106995 -0.00421316 0)
(-0.00942749 -0.00404913 0)
(-0.00820542 -0.00385021 0)
(-0.00704298 -0.00361722 0)
(-0.00594946 -0.00335157 0)
(-0.00493359 -0.00305543 0)
(-0.00400332 -0.00273188 0)
(-0.00316563 -0.00238518 0)
(-0.00242618 -0.002021 0)
(-0.00178901 -0.00164688 0)
(-0.00125617 -0.00127259 0)
(-0.000827253 -0.000910822 0)
(-0.000498865 -0.000577784 0)
(-0.000264037 -0.00029407 0)
(-0.000111205 -8.55289e-05 0)
(-2.46087e-05 1.5951e-05 0)
(-4.06228e-05 2.99068e-05 0)
(-0.000177626 0.000232614 0)
(-0.000400007 0.00054999 0)
(-0.000722027 0.000947013 0)
(-0.00115346 0.0013948 0)
(-0.00169938 0.00187004 0)
(-0.00236138 0.00235419 0)
(-0.00313823 0.0028327 0)
(-0.00402635 0.0032943 0)
(-0.00502032 0.00373039 0)
(-0.00611319 0.00413451 0)
(-0.00729685 0.00450195 0)
(-0.00856224 0.00482938 0)
(-0.00989966 0.00511458 0)
(-0.0112989 0.00535622 0)
(-0.0127494 0.00555368 0)
(-0.0142406 0.00570694 0)
(-0.0157617 0.00581639 0)
(-0.0173021 0.00588283 0)
(-0.0188513 0.00590733 0)
(-0.0203991 0.00589119 0)
(-0.0219355 0.00583589 0)
(-0.0234509 0.00574305 0)
(-0.0249359 0.0056144 0)
(-0.0263819 0.00545175 0)
(-0.0277804 0.00525697 0)
(-0.0291234 0.00503198 0)
(-0.0304034 0.0047787 0)
(-0.0316136 0.00449912 0)
(-0.0327474 0.00419519 0)
(-0.0337987 0.00386889 0)
(-0.0347621 0.00352222 0)
(-0.0356327 0.00315715 0)
(-0.0364059 0.00277568 0)
(-0.0370778 0.00237979 0)
(-0.0376449 0.00197149 0)
(-0.0381043 0.00155279 0)
(-0.0384536 0.00112571 0)
(-0.0386909 0.000692285 0)
(-0.0388149 0.000254577 0)
(-0.0388248 -0.00018533 0)
(-0.0387203 -0.000625324 0)
(-0.0385017 -0.00106326 0)
(-0.0381699 -0.00149697 0)
(-0.0377262 -0.00192424 0)
(-0.0371726 -0.00234283 0)
(-0.0365117 -0.00275046 0)
(-0.0357466 -0.00314483 0)
(-0.034881 -0.0035236 0)
(-0.0339193 -0.00388442 0)
(-0.0328664 -0.00422491 0)
(-0.0317278 -0.00454271 0)
(-0.0305096 -0.00483543 0)
(-0.0292185 -0.00510073 0)
(-0.0278617 -0.00533628 0)
(-0.0264471 -0.00553983 0)
(-0.0249831 -0.00570916 0)
(-0.0234785 -0.00584217 0)
(-0.0219427 -0.00593688 0)
(-0.0203856 -0.00599144 0)
(-0.0188173 -0.0060042 0)
(-0.0172483 -0.00597371 0)
(-0.0156896 -0.0058988 0)
(-0.0141521 -0.0057786 0)
(-0.012647 -0.00561263 0)
(-0.0111853 -0.00540084 0)
(-0.00977819 -0.00514373 0)
(-0.00843627 -0.00484244 0)
(-0.0071699 -0.00449888 0)
(-0.00598878 -0.00411589 0)
(-0.00490182 -0.00369748 0)
(-0.00391683 -0.00324904 0)
(-0.00304033 -0.00277769 0)
(-0.00227718 -0.00229266 0)
(-0.00163024 -0.00180578 0)
(-0.00109995 -0.00133205 0)
(-0.000683832 -0.000890311 0)
(-0.000375896 -0.000503978 0)
(-0.000165494 -0.000201799 0)
(-3.76307e-05 -1.83845e-05 0)
(-5.42954e-05 8.23629e-05 0)
(-0.000234464 0.000396963 0)
(-0.000517042 0.000832412 0)
(-0.000915338 0.00135203 0)
(-0.00143787 0.00192489 0)
(-0.00208837 0.00252551 0)
(-0.00286715 0.00313325 0)
(-0.00377181 0.00373162 0)
(-0.00479771 0.00430763 0)
(-0.00593846 0.00485119 0)
(-0.00718615 0.00535461 0)
(-0.00853176 0.00581219 0)
(-0.00996532 0.00621982 0)
(-0.0114762 0.00657471 0)
(-0.0130532 0.00687514 0)
(-0.0146849 0.00712028 0)
(-0.0163596 0.00730996 0)
(-0.0180657 0.00744463 0)
(-0.0197915 0.00752519 0)
(-0.0215256 0.00755289 0)
(-0.0232568 0.00752932 0)
(-0.024974 0.00745628 0)
(-0.0266669 0.00733576 0)
(-0.0283251 0.0071699 0)
(-0.029939 0.00696095 0)
(-0.0314993 0.00671126 0)
(-0.0329973 0.00642321 0)
(-0.0344248 0.00609924 0)
(-0.035774 0.00574184 0)
(-0.0370378 0.0053535 0)
(-0.0382096 0.00493671 0)
(-0.0392833 0.004494 0)
(-0.0402533 0.00402789 0)
(-0.0411147 0.0035409 0)
(-0.0418633 0.00303558 0)
(-0.042495 0.00251447 0)
(-0.0430068 0.00198013 0)
(-0.043396 0.00143514 0)
(-0.0436604 0.000882091 0)
(-0.0437987 0.000323617 0)
(-0.0438098 -0.00023763 0)
(-0.0436936 -0.00079896 0)
(-0.0434503 -0.00135764 0)
(-0.043081 -0.00191091 0)
(-0.042587 -0.00245596 0)
(-0.0419707 -0.00298993 0)
(-0.0412348 -0.00350993 0)
(-0.0403828 -0.00401303 0)
(-0.0394189 -0.00449628 0)
(-0.0383478 -0.00495668 0)
(-0.0371749 -0.00539124 0)
(-0.0359063 -0.00579695 0)
(-0.0345488 -0.00617082 0)
(-0.0331097 -0.00650988 0)
(-0.031597 -0.00681121 0)
(-0.0300193 -0.00707196 0)
(-0.0283859 -0.00728937 0)
(-0.0267065 -0.00746081 0)
(-0.0249913 -0.0075838 0)
(-0.0232513 -0.00765607 0)
(-0.0214975 -0.00767557 0)
(-0.0197415 -0.00764055 0)
(-0.0179953 -0.00754957 0)
(-0.0162707 -0.00740164 0)
(-0.0145801 -0.0071962 0)
(-0.0129356 -0.00693329 0)
(-0.0113492 -0.00661361 0)
(-0.00983259 -0.00623865 0)
(-0.00839712 -0.00581085 0)
(-0.00705345 -0.00533378 0)
(-0.0058114 -0.00481236 0)
(-0.00467973 -0.00425314 0)
(-0.00366586 -0.00366463 0)
(-0.00277563 -0.00305771 0)
(-0.0020129 -0.00244607 0)
(-0.00137922 -0.0018468 0)
(-0.000873303 -0.00128098 0)
(-0.000490402 -0.000774306 0)
(-0.000221008 -0.00035768 0)
(-5.09645e-05 -6.74909e-05 0)
(-6.79224e-05 0.00014987 0)
(-0.000291122 0.000601925 0)
(-0.000634007 0.00117698 0)
(-0.00110898 0.00183743 0)
(-0.00172324 0.00255095 0)
(-0.002479 0.00329042 0)
(-0.00337512 0.0040335 0)
(-0.00440783 0.00476205 0)
(-0.00557129 0.00546154 0)
(-0.00685797 0.00612057 0)
(-0.00825895 0.0067303 0)
(-0.00976419 0.00728407 0)
(-0.0113628 0.00777704 0)
(-0.0130432 0.00820585 0)
(-0.0147933 0.0085684 0)
(-0.0166008 0.00886359 0)
(-0.018453 0.00909119 0)
(-0.0203374 0.00925164 0)
(-0.0222415 0.00934595 0)
(-0.0241529 0.00937561 0)
(-0.0260594 0.00934245 0)
(-0.0279494 0.00924862 0)
(-0.0298113 0.00909652 0)
(-0.0316343 0.00888872 0)
(-0.0334077 0.00862795 0)
(-0.0351217 0.00831704 0)
(-0.0367666 0.00795891 0)
(-0.0383337 0.00755654 0)
(-0.0398145 0.00711296 0)
(-0.0412012 0.00663123 0)
(-0.0424868 0.00611442 0)
(-0.0436645 0.00556564 0)
(-0.0447285 0.00498798 0)
(-0.0456733 0.00438457 0)
(-0.0464942 0.00375854 0)
(-0.047187 0.00311302 0)
(-0.0477483 0.00245119 0)
(-0.0481752 0.00177622 0)
(-0.0484654 0.00109132 0)
(-0.0486173 0.000399747 0)
(-0.04863 -0.000295228 0)
(-0.048503 -0.00099028 0)
(-0.0482368 -0.00168204 0)
(-0.0478324 -0.00236709 0)
(-0.0472915 -0.00304197 0)
(-0.0466164 -0.00370315 0)
(-0.0458102 -0.00434708 0)
(-0.0448767 -0.00497015 0)
(-0.0438203 -0.00556871 0)
(-0.0426462 -0.00613909 0)
(-0.0413602 -0.0066776 0)
(-0.0399691 -0.00718057 0)
(-0.0384799 -0.00764431 0)
(-0.0369009 -0.00806519 0)
(-0.0352405 -0.00843964 0)
(-0.0335081 -0.00876419 0)
(-0.0317138 -0.00903546 0)
(-0.029868 -0.00925028 0)
(-0.0279818 -0.00940563 0)
(-0.026067 -0.00949876 0)
(-0.0241355 -0.00952722 0)
(-0.0222 -0.00948891 0)
(-0.0202732 -0.00938216 0)
(-0.0183681 -0.00920579 0)
(-0.0164978 -0.00895923 0)
(-0.0146755 -0.00864256 0)
(-0.0129141 -0.0082567 0)
(-0.0112264 -0.00780351 0)
(-0.00962461 -0.00728596 0)
(-0.00812034 -0.00670835 0)
(-0.0067244 -0.00607651 0)
(-0.00544654 -0.0053981 0)
(-0.00429522 -0.00468297 0)
(-0.00327737 -0.00394349 0)
(-0.00239803 -0.00319507 0)
(-0.00166005 -0.00245661 0)
(-0.00106351 -0.00175103 0)
(-0.00060508 -0.00110582 0)
(-0.00027646 -0.000553447 0)
(-6.42811e-05 -0.000131339 0)
(-8.13182e-05 0.000232152 0)
(-0.000346866 0.000847111 0)
(-0.000749446 0.00158348 0)
(-0.00130068 0.00240328 0)
(-0.00200646 0.00327328 0)
(-0.00286739 0.00416518 0)
(-0.00388078 0.0050553 0)
(-0.00504137 0.00592414 0)
(-0.00634197 0.00675588 0)
(-0.0077738 0.00753794 0)
(-0.00932681 0.00826044 0)
(-0.0109899 0.00891588 0)
(-0.0127512 0.0094987 0)
(-0.0145982 0.010005 0)
(-0.0165179 0.0104324 0)
(-0.018497 0.0107795 0)
(-0.020522 0.0110459 0)
(-0.0225796 0.0112322 0)
(-0.0246563 0.0113395 0)
(-0.026739 0.0113695 0)
(-0.0288147 0.0113243 0)
(-0.0308708 0.0112064 0)
(-0.0328952 0.0110187 0)
(-0.0348761 0.0107642 0)
(-0.0368023 0.0104461 0)
(-0.0386631 0.0100677 0)
(-0.0404484 0.00963265 0)
(-0.0421486 0.00914438 0)
(-0.0437548 0.00860655 0)
(-0.0452587 0.0080228 0)
(-0.0466526 0.00739685 0)
(-0.0479294 0.00673239 0)
(-0.0490827 0.00603318 0)
(-0.0501068 0.00530295 0)
(-0.0509966 0.00454548 0)
(-0.0517477 0.00376455 0)
(-0.0523562 0.00296397 0)
(-0.0528192 0.00214758 0)
(-0.0531341 0.00131924 0)
(-0.0532993 0.000482871 0)
(-0.0533137 -0.000357577 0)
(-0.053177 -0.0011981 0)
(-0.0528895 -0.00203464 0)
(-0.0524523 -0.00286309 0)
(-0.0518673 -0.00367926 0)
(-0.0511368 -0.00447893 0)
(-0.0502643 -0.00525782 0)
(-0.0492537 -0.00601158 0)
(-0.0481098 -0.00673583 0)
(-0.0468381 -0.00742618 0)
(-0.045445 -0.00807819 0)
(-0.0439374 -0.00868744 0)
(-0.0423231 -0.00924954 0)
(-0.0406107 -0.00976014 0)
(-0.0388094 -0.010215 0)
(-0.0369292 -0.0106099 0)
(-0.0349807 -0.0109408 0)
(-0.0329753 -0.0112041 0)
(-0.0309247 -0.011396 0)
(-0.0288415 -0.0115134 0)
(-0.0267385 -0.0115534 0)
(-0.0246292 -0.0115135 0)
(-0.0225271 -0.0113917 0)
(-0.0204462 -0.0111867 0)
(-0.0184006 -0.010898 0)
(-0.0164042 -0.0105255 0)
(-0.014471 -0.0100705 0)
(-0.0126147 -0.00953513 0)
(-0.0108485 -0.00892295 0)
(-0.00918494 -0.00823892 0)
(-0.00763593 -0.00748976 0)
(-0.00621227 -0.00668417 0)
(-0.00492356 -0.00583323 0)
(-0.00377793 -0.0049507 0)
(-0.00278176 -0.00405346 0)
(-0.00193931 -0.00316197 0)
(-0.00125216 -0.00230068 0)
(-0.000718454 -0.00149845 0)
(-0.0003311 -0.000788792 0)
(-7.73904e-05 -0.00020968 0)
(-9.43888e-05 0.000328823 0)
(-0.000401322 0.00113181 0)
(-0.00086259 0.00205119 0)
(-0.00148919 0.003049 0)
(-0.00228575 0.00409149 0)
(-0.00325131 0.00514955 0)
(-0.00438151 0.00619847 0)
(-0.00566955 0.00721767 0)
(-0.00710676 0.00819026 0)
(-0.00868304 0.00910264 0)
(-0.0103871 0.00994404 0)
(-0.0122068 0.0107062 0)
(-0.0141291 0.0113829 0)
(-0.0161405 0.0119699 0)
(-0.0182271 0.0124643 0)
(-0.0203748 0.0128645 0)
(-0.0225692 0.0131703 0)
(-0.024796 0.0133821 0)
(-0.0270411 0.0135012 0)
(-0.0292905 0.0135296 0)
(-0.0315305 0.0134697 0)
(-0.0337477 0.0133243 0)
(-0.0359293 0.0130968 0)
(-0.0380628 0.0127907 0)
(-0.0401363 0.0124098 0)
(-0.0421387 0.0119578 0)
(-0.044059 0.011439 0)
(-0.0458872 0.0108576 0)
(-0.0476139 0.0102176 0)
(-0.0492302 0.00952351 0)
(-0.050728 0.00877959 0)
(-0.0520998 0.00799025 0)
(-0.0533388 0.00715987 0)
(-0.054439 0.00629289 0)
(-0.0553949 0.00539374 0)
(-0.0562018 0.00446689 0)
(-0.0568558 0.00351684 0)
(-0.0573536 0.00254812 0)
(-0.0576926 0.00156531 0)
(-0.0578709 0.000573015 0)
(-0.0578874 -0.000424092 0)
(-0.0577419 -0.00142128 0)
(-0.0574345 -0.00241377 0)
(-0.0569665 -0.00339669 0)
(-0.0563398 -0.00436513 0)
(-0.055557 -0.00531408 0)
(-0.0546216 -0.0062385 0)
(-0.0535378 -0.00713327 0)
(-0.0523106 -0.00799324 0)
(-0.0509459 -0.00881321 0)
(-0.0494504 -0.00958798 0)
(-0.0478314 -0.0103123 0)
(-0.0460972 -0.0109811 0)
(-0.0442569 -0.0115892 0)
(-0.0423201 -0.0121316 0)
(-0.0402975 -0.0126034 0)
(-0.0382004 -0.013 0)
(-0.0360406 -0.0133169 0)
(-0.0338307 -0.0135499 0)
(-0.031584 -0.0136952 0)
(-0.0293141 -0.0137496 0)
(-0.0270352 -0.0137101 0)
(-0.0247617 -0.0135745 0)
(-0.0225085 -0.0133412 0)
(-0.0202905 -0.0130096 0)
(-0.0181226 -0.0125798 0)
(-0.0160197 -0.0120531 0)
(-0.0139964 -0.0114322 0)
(-0.0120669 -0.0107209 0)
(-0.010245 -0.00992501 0)
(-0.00854338 -0.00905194 0)
(-0.00697417 -0.00811141 0)
(-0.00554816 -0.00711561 0)
(-0.00427481 -0.00607951 0)
(-0.00316192 -0.00502132 0)
(-0.00221528 -0.00396278 0)
(-0.00143801 -0.00292958 0)
(-0.000829758 -0.00195161 0)
(-0.000384552 -0.00106308 0)
(-9.01976e-05 -0.000302152 0)
(-0.000107102 0.000439457 0)
(-0.000454358 0.00145515 0)
(-0.000973141 0.00257914 0)
(-0.00167398 0.00377368 0)
(-0.00256034 0.00500483 0)
(-0.00362972 0.00624293 0)
(-0.00487609 0.00746253 0)
(-0.00629102 0.00864221 0)
(-0.00786432 0.0097642 0)
(-0.00958446 0.0108141 0)
(-0.0114389 0.0117803 0)
(-0.0134142 0.0126539 0)
(-0.0154963 0.0134283 0)
(-0.0176707 0.0140987 0)
(-0.0199225 0.0146619 0)
(-0.0222367 0.0151163 0)
(-0.0245979 0.0154616 0)
(-0.0269913 0.0156982 0)
(-0.0294016 0.0158277 0)
(-0.0318143 0.0158522 0)
(-0.0342149 0.0157746 0)
(-0.0365893 0.0155981 0)
(-0.0389241 0.0153265 0)
(-0.0412061 0.0149639 0)
(-0.0434228 0.0145145 0)
(-0.0455625 0.0139829 0)
(-0.0476137 0.0133737 0)
(-0.0495659 0.0126918 0)
(-0.0514091 0.0119421 0)
(-0.0531341 0.0111295 0)
(-0.0547323 0.0102591 0)
(-0.056196 0.00933593 0)
(-0.0575178 0.00836514 0)
(-0.0586915 0.00735183 0)
(-0.0597114 0.00630116 0)
(-0.0605725 0.00521833 0)
(-0.0612706 0.00410854 0)
(-0.0618023 0.00297707 0)
(-0.0621648 0.00182921 0)
(-0.0623562 0.00067033 0)
(-0.0623754 -0.000494148 0)
(-0.0622219 -0.00165873 0)
(-0.0618961 -0.00281787 0)
(-0.0613991 -0.00396591 0)
(-0.0607329 -0.00509715 0)
(-0.0599003 -0.00620579 0)
(-0.0589049 -0.00728596 0)
(-0.0577511 -0.00833175 0)
(-0.0564442 -0.00933715 0)
(-0.0549903 -0.0102962 0)
(-0.0533964 -0.0112027 0)
(-0.0516702 -0.0120509 0)
(-0.0498203 -0.0128345 0)
(-0.0478563 -0.0135479 0)
(-0.0457884 -0.014185 0)
(-0.0436277 -0.0147404 0)
(-0.041386 -0.0152086 0)
(-0.0390759 -0.0155845 0)
(-0.0367106 -0.0158632 0)
(-0.034304 -0.0160405 0)
(-0.0318705 -0.0161124 0)
(-0.029425 -0.0160756 0)
(-0.0269828 -0.0159277 0)
(-0.0245595 -0.0156668 0)
(-0.022171 -0.0152922 0)
(-0.0198331 -0.0148039 0)
(-0.0175617 -0.0142036 0)
(-0.0153722 -0.0134939 0)
(-0.0132801 -0.0126795 0)
(-0.0113 -0.0117664 0)
(-0.00944593 -0.010763 0)
(-0.0077312 -0.00967988 0)
(-0.00616792 -0.00853014 0)
(-0.00476695 -0.00732988 0)
(-0.00353762 -0.0060984 0)
(-0.00248726 -0.00485855 0)
(-0.0016206 -0.00363702 0)
(-0.000938719 -0.00246447 0)
(-0.000436696 -0.00137554 0)
(-0.000102672 -0.000408358 0)
(-0.000119466 0.000563637 0)
(-0.000506007 0.00181625 0)
(-0.00108113 0.00316625 0)
(-0.00185504 0.00457629 0)
(-0.00283016 0.00601239 0)
(-0.00400248 0.00744458 0)
(-0.00536432 0.00884689 0)
(-0.00690561 0.0101973 0)
(-0.00861456 0.0114773 0)
(-0.0104782 0.0126718 0)
(-0.0124825 0.0137686 0)
(-0.014613 0.0147584 0)
(-0.0168543 0.0156339 0)
(-0.0191908 0.0163902 0)
(-0.0216067 0.0170238 0)
(-0.0240859 0.0175331 0)
(-0.0266125 0.0179176 0)
(-0.0291704 0.0181781 0)
(-0.0317439 0.0183162 0)
(-0.0343175 0.0183344 0)
(-0.0368761 0.0182359 0)
(-0.039405 0.0180245 0)
(-0.04189 0.0177044 0)
(-0.0443175 0.0172802 0)
(-0.0466743 0.0167568 0)
(-0.0489481 0.0161393 0)
(-0.051127 0.0154331 0)
(-0.0532001 0.0146437 0)
(-0.0551569 0.0137766 0)
(-0.0569878 0.0128376 0)
(-0.0586838 0.0118324 0)
(-0.0602368 0.0107668 0)
(-0.0616393 0.00964666 0)
(-0.0628846 0.00847779 0)
(-0.0639668 0.00726611 0)
(-0.0648807 0.00601758 0)
(-0.065622 0.00473816 0)
(-0.0661871 0.00343387 0)
(-0.066573 0.0021108 0)
(-0.0667777 0.000775082 0)
(-0.0668001 -0.000567081 0)
(-0.0666395 -0.0019094 0)
(-0.0662965 -0.00324551 0)
(-0.0657721 -0.00456897 0)
(-0.0650684 -0.00587321 0)
(-0.0641882 -0.00715162 0)
(-0.0631354 -0.00839749 0)
(-0.0619144 -0.00960402 0)
(-0.0605307 -0.0107644 0)
(-0.0589907 -0.0118717 0)
(-0.0573016 -0.012919 0)
(-0.0554715 -0.0138995 0)
(-0.0535094 -0.0148062 0)
(-0.0514252 -0.0156325 0)
(-0.0492295 -0.0163717 0)
(-0.0469339 -0.0170174 0)
(-0.0445508 -0.0175634 0)
(-0.0420933 -0.0180038 0)
(-0.0395752 -0.0183331 0)
(-0.0370111 -0.0185465 0)
(-0.0344162 -0.0186394 0)
(-0.031806 -0.0186081 0)
(-0.0291967 -0.0184498 0)
(-0.0266047 -0.0181623 0)
(-0.0240466 -0.0177447 0)
(-0.0215394 -0.0171972 0)
(-0.0190997 -0.0165213 0)
(-0.0167443 -0.0157202 0)
(-0.0144894 -0.0147986 0)
(-0.0123509 -0.0137633 0)
(-0.0103442 -0.0126232 0)
(-0.0084837 -0.0113897 0)
(-0.006783 -0.0100769 0)
(-0.00525445 -0.00870168 0)
(-0.0039089 -0.00728437 0)
(-0.00275531 -0.00584873 0)
(-0.00179998 -0.00442224 0)
(-0.00104541 -0.00303615 0)
(-0.00048758 -0.00172538 0)
(-0.000114827 -0.000527909 0)
(-0.000131515 0.000700983 0)
(-0.000556405 0.00221428 0)
(-0.00118679 0.00381152 0)
(-0.0020327 0.00545579 0)
(-0.00309562 0.00711325 0)
(-0.00437008 0.00875375 0)
(-0.0058468 0.010351 0)
(-0.00751402 0.0118824 0)
(-0.00935835 0.0133291 0)
(-0.0113653 0.0146755 0)
(-0.0135194 0.0159088 0)
(-0.0158049 0.0170192 0)
(-0.0182051 0.0179994 0)
(-0.0207035 0.0188438 0)
(-0.023283 0.0195492 0)
(-0.0259267 0.0201138 0)
(-0.0286177 0.0205372 0)
(-0.0313392 0.0208203 0)
(-0.0340745 0.020965 0)
(-0.0368076 0.0209742 0)
(-0.0395225 0.0208516 0)
(-0.042204 0.0206013 0)
(-0.0448372 0.0202281 0)
(-0.0474079 0.0197372 0)
(-0.0499026 0.0191341 0)
(-0.0523083 0.0184246 0)
(-0.0546128 0.0176147 0)
(-0.0568045 0.0167108 0)
(-0.0588727 0.0157189 0)
(-0.0608073 0.0146457 0)
(-0.0625992 0.0134975 0)
(-0.0642397 0.012281 0)
(-0.0657212 0.0110027 0)
(-0.0670368 0.00966928 0)
(-0.0681802 0.00828738 0)
(-0.0691462 0.00686373 0)
(-0.0699301 0.00540509 0)
(-0.0705282 0.00391827 0)
(-0.0709375 0.00241015 0)
(-0.0711558 0.000887655 0)
(-0.071182 -0.000642184 0)
(-0.0710153 -0.00217226 0)