/*--------------------------------*- C++ -*----------------------------------*\
| =========                 |                                                 |
| \\      /  F ield         | OpenFOAM: The Open Source CFD Toolbox           |
|  \\    /   O peration     | Version:  4.1                                   |
|   \\  /    A nd           | Web:      www.OpenFOAM.org                      |
|    \\/     M anipulation  |                                                 |
\*---------------------------------------------------------------------------*/
FoamFile
{
    version     2.0;
    format      ascii;
    class       volScalarField;
    location    "0.0044";
    object      p;
}
// * * * * * * * * * * * * * * * * * * * * * * * * * * * * * * * * * * * * * //

dimensions      [1 -1 -2 0 0 0 0];

internalField   nonuniform List<scalar> 
441
(
100000
99999.9
99999.7
99999.9
99999.9
99999.6
100000
100000
100000
100001
100001
100001
100001
100001
100001
100001
100001
100001
100001
100001
100001
100000
100000
100000
100000
100000
100000
100000
100000
100000
100000
100000
100000
100000
100000
100000
100001
100000
100001
100000
100001
100000
100000
99999.9
100000
99999.9
100000
99999.9
100000
100000
100000
100001
100001
100001
100001
100001
100001
100001
100001
100001
100001
100001
100001
100000
100000
100000
100000
100000
100000
100000
100000
100000
100000
100000
100000
100000
100001
100001
100001
100001
100001
100001
100001
100001
100000
99999.6
99999.8
99999.7
99999.8
99999.9
100000
100000
100000
100000
100000
100001
100001
100001
100001
100001
100001
100001
100001
100001
100001
99999
99999.6
99999.4
99999.7
99999.7
99999.8
99999.9
100000
100000
100000
100000
100001
100001
100001
100001
100001
100001
100001
100001
100001
100001
99998.7
99999
99999
99999.2
99999.3
99999.5
99999.6
99999.8
100000
100000
100000
100001
100001
100001
100001
100001
100001
100001
100001
100002
100000
99998.8
99998.8
99998.8
99999
99999.1
99999.3
99999.4
99999.7
99999.9
100000
100000
100001
100001
100001
100001
100001
100001
100002
100001
100002
100001
99998
99998.1
99998.1
99998.3
99998.5
99998.8
99999
99999.3
99999.6
100000
100000
100001
100001
100001
100002
100002
100002
100002
100002
100003
100002
99997.7
99997.7
99997.7
99997.9
99998.1
99998.4
99998.7
99999.1
99999.4
99999.9
100000
100001
100001
100002
100002
100002
100002
100003
100002
100003
100002
99996.6
99996.6
99996.7
99997
99997.2
99997.7
99998
99998.6
99999.1
99999.7
100000
100001
100002
100002
100003
100003
100003
100004
100004
100004
100004
99996.1
99996.1
99996.1
99996.5
99996.7
99997.2
99997.5
99998.2
99998.7
99999.4
100000
100001
100002
100002
100003
100003
100004
100004
100004
100005
100004
99994.5
99994.5
99994.5
99995.1
99995.3
99996.1
99996.6
99997.4
99998.2
99999.1
100000
100001
100002
100003
100004
100004
100005
100006
100005
100006
100004
99993.9
99993.9
99993.9
99994.4
99994.6
99995.4
99995.9
99996.9
99997.7
99998.7
99999.8
100001
100002
100003
100004
100005
100006
100006
100006
100007
100005
99991.1
99991.4
99991.3
99992.4
99992.7
99993.9
99994.6
99995.9
99997
99998.2
99999.6
100001
100003
100004
100006
100006
100008
100008
100010
100009
100007
99990.7
99991
99990.7
99991.8
99991.8
99993.2
99993.8
99995.2
99996.4
99997.7
99999.2
100000
100002
100003
100006
100006
100009
100009
100010
100010
100005
99985.5
99987.1
99986.4
99988.8
99989
99991.2
99992.1
99994.1
99995.5
99997.2
99999
100000
100003
100004
100007
100008
100012
100012
100019
100014
100030
99985.6
99987.1
99985.9
99988.2
99988.2
99990.4
99991.3
99993.4
99994.8
99996.6
99998.5
99999.9
100002
100003
100007
100007
100012
100012
100019
100018
100028
99973.4
99980.7
99978.9
99984.4
99984.6
99988.4
99989.6
99992.3
99994
99996.1
99998.2
99999.8
100003
100004
100008
100008
100015
100015
100026
100027
100041
99973.7
99982
99979.3
99984.2
99984.2
99987.9
99989.1
99991.9
99993.7
99995.7
99997.9
99999.4
100002
100003
100007
100007
100013
100013
100024
100026
100045
99931.5
99974.2
99972.4
99983.2
99983.1
99987.8
99989
99991.9
99993.7
99995.8
99998
99999.5
100002
100003
100008
100008
100016
100017
100037
100045
100100
)
;

boundaryField
{
    movingWall
    {
        type            zeroGradient;
    }
    fixedWalls
    {
        type            zeroGradient;
    }
    frontAndBack
    {
        type            empty;
    }
}


// ************************************************************************* //
