/*--------------------------------*- C++ -*----------------------------------*\
| =========                 |                                                 |
| \\      /  F ield         | OpenFOAM: The Open Source CFD Toolbox           |
|  \\    /   O peration     | Version:  4.1                                   |
|   \\  /    A nd           | Web:      www.OpenFOAM.org                      |
|    \\/     M anipulation  |                                                 |
\*---------------------------------------------------------------------------*/
FoamFile
{
    version     2.0;
    format      ascii;
    class       volVectorField;
    location    "10.75";
    object      U;
}
// * * * * * * * * * * * * * * * * * * * * * * * * * * * * * * * * * * * * * //

dimensions      [0 1 -1 0 0 0 0];

internalField   nonuniform List<vector> 
400
(
(0.000200537 -0.00019768 0)
(-9.08858e-05 8.46154e-05 0)
(-0.00154365 0.000333086 0)
(-0.00375028 0.000516213 0)
(-0.00647445 0.000605537 0)
(-0.00937627 0.000635538 0)
(-0.0122297 0.000611126 0)
(-0.0147903 0.000536486 0)
(-0.0168292 0.000405439 0)
(-0.0181094 0.00021622 0)
(-0.0184238 -2.44744e-05 0)
(-0.017635 -0.000294272 0)
(-0.0157285 -0.000555188 0)
(-0.012862 -0.000756191 0)
(-0.00937011 -0.000847834 0)
(-0.00576225 -0.000790489 0)
(-0.00258871 -0.000586583 0)
(-0.000405132 -0.000258058 0)
(0.000558477 7.3267e-05 0)
(0.000316705 0.000301793 0)
(-8.9247e-05 8.15314e-05 0)
(-0.00206407 0.00193706 0)
(-0.00649322 0.00366405 0)
(-0.0124691 0.0048999 0)
(-0.0194837 0.00553041 0)
(-0.0268005 0.00564675 0)
(-0.03386 0.00528771 0)
(-0.0400705 0.00447291 0)
(-0.0448847 0.00320131 0)
(-0.0477772 0.00150432 0)
(-0.0483231 -0.000520393 0)
(-0.0462756 -0.00268186 0)
(-0.0416593 -0.00469906 0)
(-0.0348508 -0.00623226 0)
(-0.0265807 -0.00695855 0)
(-0.0179206 -0.00665305 0)
(-0.0100316 -0.00531953 0)
(-0.0040885 -0.00319093 0)
(-0.000618226 -0.000939561 0)
(0.000178465 0.000590972 0)
(-0.000420905 0.00167318 0)
(-0.00437754 0.00649659 0)
(-0.0118278 0.0105671 0)
(-0.0212746 0.0133598 0)
(-0.0319945 0.0147251 0)
(-0.0429694 0.0148035 0)
(-0.053413 0.0136724 0)
(-0.0624976 0.0113796 0)
(-0.0694667 0.00796232 0)
(-0.073616 0.0035426 0)
(-0.0743912 -0.00160535 0)
(-0.071479 -0.00701027 0)
(-0.0649125 -0.0120156 0)
(-0.0551713 -0.0158506 0)
(-0.0431917 -0.017783 0)
(-0.0303819 -0.017304 0)
(-0.0183151 -0.0143904 0)
(-0.00868206 -0.00956758 0)
(-0.00234487 -0.00420684 0)
(-1.38175e-05 -6.6669e-06 0)
(-0.000746841 0.00445165 0)
(-0.00665207 0.0134674 0)
(-0.0169999 0.0204604 0)
(-0.0296423 0.0250191 0)
(-0.0436511 0.0271008 0)
(-0.0577865 0.0269391 0)
(-0.0711207 0.0246682 0)
(-0.0826805 0.0203758 0)
(-0.0915863 0.0141554 0)
(-0.0970195 0.00624322 0)
(-0.0983246 -0.00288158 0)
(-0.0950963 -0.0124332 0)
(-0.0872909 -0.0213322 0)
(-0.0753532 -0.0283047 0)
(-0.0602648 -0.0321045 0)
(-0.0436379 -0.0318116 0)
(-0.0273994 -0.0272605 0)
(-0.0138306 -0.019217 0)
(-0.00427603 -0.00977206 0)
(-0.000209237 -0.00151679 0)
(-0.00102456 0.00838602 0)
(-0.00868642 0.0228128 0)
(-0.0216756 0.0332871 0)
(-0.0372074 0.0397814 0)
(-0.0541602 0.0425295 0)
(-0.0711157 0.0419302 0)
(-0.0870665 0.0382086 0)
(-0.100965 0.0315037 0)
(-0.111868 0.0219696 0)
(-0.118879 0.00995145 0)
(-0.121236 -0.00387827 0)
(-0.118385 -0.0184304 0)
(-0.110097 -0.0321927 0)
(-0.0966322 -0.0433306 0)
(-0.0788568 -0.0499515 0)
(-0.0584729 -0.0505201 0)
(-0.0377466 -0.0444978 0)
(-0.0197064 -0.0327339 0)
(-0.00640936 -0.0180382 0)
(-0.000389712 -0.00403298 0)
(-0.00125885 0.0132888 0)
(-0.0104193 0.0341875 0)
(-0.0256868 0.0486259 0)
(-0.0437173 0.0571913 0)
(-0.0632256 0.0605645 0)
(-0.0826618 0.0593978 0)
(-0.100993 0.0540509 0)
(-0.117158 0.0447239 0)
(-0.130202 0.031616 0)
(-0.13918 0.0151419 0)
(-0.143219 -0.00389254 0)
(-0.141568 -0.0241608 0)
(-0.133707 -0.0437606 0)
(-0.119556 -0.0602712 0)
(-0.099676 -0.0710094 0)
(-0.0756822 -0.0735408 0)
(-0.0501038 -0.0665724 0)
(-0.0268587 -0.0507196 0)
(-0.0090144 -0.0294486 0)
(-0.000605592 -0.00767139 0)
(-0.00143932 0.0190006 0)
(-0.0117812 0.0472686 0)
(-0.0288684 0.0660928 0)
(-0.0489072 0.0768643 0)
(-0.070487 0.0808645 0)
(-0.0919777 0.0790892 0)
(-0.11237 0.0720814 0)
(-0.130644 0.0601104 0)
(-0.145886 0.0433941 0)
(-0.157146 0.022354 0)
(-0.16346 -0.00216536 0)
(-0.163864 -0.028714 0)
(-0.157486 -0.0550998 0)
(-0.143769 -0.0783487 0)
(-0.122745 -0.0948724 0)
(-0.0956696 -0.101007 0)
(-0.0651052 -0.094153 0)
(-0.0358827 -0.0741293 0)
(-0.0124128 -0.044819 0)
(-0.000906132 -0.0127578 0)
(-0.00156074 0.0253015 0)
(-0.0127171 0.0616117 0)
(-0.0310754 0.0851465 0)
(-0.0525136 0.0982364 0)
(-0.0755342 0.102896 0)
(-0.0984787 0.10055 0)
(-0.120404 0.0919793 0)
(-0.14039 0.0775335 0)
(-0.157624 0.0574217 0)
(-0.171214 0.0319999 0)
(-0.180168 0.00203528 0)
(-0.183361 -0.0310542 0)
(-0.179575 -0.0649578 0)
(-0.167697 -0.0962826 0)
(-0.147023 -0.120526 0)
(-0.118072 -0.132504 0)
(-0.0829988 -0.127618 0)
(-0.0472952 -0.10397 0)
(-0.0169675 -0.0652103 0)
(-0.00135826 -0.0197877 0)
(-0.0016203 0.0319655 0)
(-0.0131936 0.0767391 0)
(-0.0322033 0.105182 0)
(-0.054315 0.120644 0)
(-0.0779756 0.125984 0)
(-0.101547 0.123138 0)
(-0.124193 0.113187 0)
(-0.145148 0.0965799 0)
(-0.163765 0.0735037 0)
(-0.179301 0.0441873 0)
(-0.190842 0.00920655 0)
(-0.197221 -0.0302288 0)
(-0.196979 -0.0719264 0)
(-0.188478 -0.112339 0)
(-0.170151 -0.146233 0)
(-0.14139 -0.166797 0)
(-0.103294 -0.166729 0)
(-0.0613345 -0.141091 0)
(-0.0230401 -0.0919021 0)
(-0.00204395 -0.029477 0)
(-0.00162698 0.0387432 0)
(-0.01324 0.0921121 0)
(-0.0322578 0.125489 0)
(-0.0542282 0.143259 0)
(-0.0775627 0.149231 0)
(-0.100697 0.145926 0)
(-0.122937 0.134794 0)
(-0.143729 0.116425 0)
(-0.162663 0.0909873 0)
(-0.179238 0.0585516 0)
(-0.192756 0.0194164 0)
(-0.202175 -0.0255815 0)
(-0.205997 -0.0746393 0)
(-0.202227 -0.124444 0)
(-0.188488 -0.169456 0)
(-0.162774 -0.201487 0)
(-0.124422 -0.210076 0)
(-0.0777153 -0.185679 0)
(-0.0309578 -0.126164 0)
(-0.00307687 -0.042757 0)
(-0.00161807 0.0454668 0)
(-0.0129938 0.107274 0)
(-0.0314218 0.145377 0)
(-0.052399 0.165188 0)
(-0.074313 0.171584 0)
(-0.0957434 0.167744 0)
(-0.116181 0.155572 0)
(-0.135343 0.135838 0)
(-0.153116 0.108732 0)
(-0.169333 0.0741679 0)
(-0.183634 0.0321298 0)
(-0.195288 -0.0170337 0)
(-0.20301 -0.072155 0)
(-0.204745 -0.130599 0)
(-0.197587 -0.187171 0)
(-0.178148 -0.233017 0)
(-0.143515 -0.254668 0)
(-0.0952978 -0.236636 0)
(-0.0409131 -0.168897 0)
(-0.00461487 -0.0607841 0)
(-0.0016633 0.0520087 0)
(-0.0127677 0.121787 0)
(-0.0301667 0.164116 0)
(-0.0493379 0.185413 0)
(-0.068659 0.191803 0)
(-0.0869755 0.187183 0)
(-0.104022 0.173996 0)
(-0.119858 0.153242 0)
(-0.134716 0.125174 0)
(-0.148821 0.0895855 0)
(-0.162237 0.0461638 0)
(-0.174688 -0.0052659 0)
(-0.185341 -0.0643227 0)
(-0.192441 -0.129434 0)
(-0.193043 -0.196487 0)
(-0.182763 -0.257103 0)
(-0.156481 -0.295835 0)
(-0.111769 -0.290913 0)
(-0.0527602 -0.220025 0)
(-0.00686883 -0.0848713 0)
(-0.00192442 0.0586933 0)
(-0.0131091 0.135717 0)
(-0.0292588 0.181328 0)
(-0.0458873 0.203073 0)
(-0.0613891 0.208661 0)
(-0.0750885 0.202755 0)
(-0.0870475 0.188408 0)
(-0.0977619 0.166866 0)
(-0.107835 0.13848 0)
(-0.117907 0.102964 0)
(-0.128494 0.0597656 0)
(-0.139836 0.00823837 0)
(-0.151721 -0.0520327 0)
(-0.163014 -0.120741 0)
(-0.171325 -0.19547 0)
(-0.171989 -0.269648 0)
(-0.158433 -0.327766 0)
(-0.123472 -0.343182 0)
(-0.0656483 -0.27774 0)
(-0.0100862 -0.11636 0)
(-0.00265214 0.06579 0)
(-0.015007 0.148957 0)
(-0.0300103 0.196374 0)
(-0.0434241 0.216987 0)
(-0.0537263 0.220629 0)
(-0.0611308 0.212728 0)
(-0.0661528 0.196974 0)
(-0.0698522 0.174814 0)
(-0.0732125 0.146696 0)
(-0.0772805 0.112282 0)
(-0.0829823 0.0708543 0)
(-0.091061 0.0214126 0)
(-0.10198 -0.0371142 0)
(-0.115419 -0.105633 0)
(-0.130086 -0.183699 0)
(-0.14189 -0.267696 0)
(-0.144234 -0.344487 0)
(-0.125466 -0.386009 0)
(-0.077514 -0.337621 0)
(-0.0144713 -0.156127 0)
(-0.00439481 0.0755758 0)
(-0.0197537 0.16322 0)
(-0.0336971 0.209784 0)
(-0.0429782 0.226509 0)
(-0.0462901 0.226353 0)
(-0.0453881 0.215369 0)
(-0.0413769 0.197792 0)
(-0.0360313 0.175109 0)
(-0.0306982 0.14778 0)
(-0.0267911 0.115401 0)
(-0.0255741 0.0771438 0)
(-0.0282106 0.0318001 0)
(-0.0357952 -0.0221214 0)
(-0.0488548 -0.0864394 0)
(-0.067543 -0.162526 0)
(-0.0890734 -0.250266 0)
(-0.108665 -0.341205 0)
(-0.111576 -0.410905 0)
(-0.0843693 -0.392293 0)
(-0.0199768 -0.204165 0)
(-0.00800769 0.0882828 0)
(-0.0299557 0.177602 0)
(-0.0422897 0.219537 0)
(-0.0453991 0.22895 0)
(-0.038498 0.222988 0)
(-0.0261732 0.207993 0)
(-0.0102398 0.188426 0)
(0.00665855 0.16555 0)
(0.0228938 0.139684 0)
(0.0367735 0.110316 0)
(0.0468143 0.0765541 0)
(0.0515583 0.0371284 0)
(0.0494113 -0.00960093 0)
(0.039125 -0.065897 0)
(0.0190488 -0.134383 0)
(-0.00972093 -0.218119 0)
(-0.0459718 -0.314746 0)
(-0.0741657 -0.408912 0)
(-0.0795629 -0.430455 0)
(-0.0257311 -0.257252 0)
(-0.0146222 0.114333 0)
(-0.0452297 0.197694 0)
(-0.0516268 0.226854 0)
(-0.0432704 0.222513 0)
(-0.0206589 0.20757 0)
(0.00743426 0.187443 0)
(0.0386819 0.165907 0)
(0.069644 0.143484 0)
(0.0986343 0.120042 0)
(0.123872 0.0948725 0)
(0.143839 0.0670184 0)
(0.156964 0.0352652 0)
(0.161372 -0.00195548 0)
(0.155318 -0.0468711 0)
(0.135934 -0.102615 0)
(0.102624 -0.174217 0)
(0.0519576 -0.265284 0)
(-0.00255349 -0.37355 0)
(-0.0517086 -0.439149 0)
(-0.0284975 -0.309964 0)
(-0.0256205 0.141879 0)
(-0.0655985 0.209192 0)
(-0.0479834 0.216783 0)
(-0.0145672 0.195567 0)
(0.0341555 0.171897 0)
(0.0840464 0.148495 0)
(0.133762 0.127098 0)
(0.179935 0.107213 0)
(0.221511 0.0880919 0)
(0.257145 0.0688591 0)
(0.285674 0.0485613 0)
(0.305731 0.0261741 0)
(0.315503 0.000411 0)
(0.313023 -0.0304642 0)
(0.294788 -0.0692809 0)
(0.258727 -0.121062 0)
(0.197068 -0.193233 0)
(0.118751 -0.296428 0)
(0.0178067 -0.395471 0)
(-0.0171705 -0.338984 0)
(-0.0187478 0.214582 0)
(-0.0197956 0.215332 0)
(0.0566353 0.181578 0)
(0.128696 0.140385 0)
(0.205586 0.110519 0)
(0.273791 0.0882621 0)
(0.335387 0.0710095 0)
(0.388962 0.0570585 0)
(0.434864 0.0449947 0)
(0.472834 0.0338599 0)
(0.502483 0.0228366 0)
(0.523025 0.0112197 0)
(0.533164 -0.00182179 0)
(0.531153 -0.0172728 0)
(0.513836 -0.0371358 0)
(0.478237 -0.0648285 0)
(0.414644 -0.108586 0)
(0.323973 -0.186721 0)
(0.173192 -0.296557 0)
(0.0429803 -0.33504 0)
(0.21133 0.129536 0)
(0.297273 0.100933 0)
(0.451172 0.0674643 0)
(0.543293 0.0443161 0)
(0.618075 0.0290874 0)
(0.673985 0.0198507 0)
(0.717924 0.0138478 0)
(0.752527 0.00980207 0)
(0.779767 0.00682531 0)
(0.800644 0.00442432 0)
(0.815595 0.00226955 0)
(0.824572 0.000141669 0)
(0.827082 -0.00218156 0)
(0.82213 -0.00488893 0)
(0.807843 -0.00852705 0)
(0.781243 -0.0136936 0)
(0.734302 -0.0229 0)
(0.658598 -0.040727 0)
(0.498163 -0.0743668 0)
(0.288347 -0.136214 0)
)
;

boundaryField
{
    movingWall
    {
        type            fixedValue;
        value           uniform (1 0 0);
    }
    fixedWalls
    {
        type            noSlip;
    }
    frontAndBack
    {
        type            empty;
    }
}


// ************************************************************************* //
