/*--------------------------------*- C++ -*----------------------------------*\
| =========                 |                                                 |
| \\      /  F ield         | OpenFOAM: The Open Source CFD Toolbox           |
|  \\    /   O peration     | Version:  4.1                                   |
|   \\  /    A nd           | Web:      www.OpenFOAM.org                      |
|    \\/     M anipulation  |                                                 |
\*---------------------------------------------------------------------------*/
FoamFile
{
    version     2.0;
    format      ascii;
    class       volScalarField;
    location    "0.0001";
    object      p;
}
// * * * * * * * * * * * * * * * * * * * * * * * * * * * * * * * * * * * * * //

dimensions      [1 -1 -2 0 0 0 0];

internalField   nonuniform List<scalar> 
441
(
100000
99999.8
99999.8
100000
99999.9
99999.5
99999.9
100000
100001
100001
100001
100001
100001
100000
100000
100000
100000
100000
100000
100000
100000
100000
99999.9
99999.9
100000
100000
100000
100000
100000
100000
100001
100001
100001
100001
100000
100000
100000
100000
100000
100000
100000
100000
99999.8
99999.7
99999.7
99999.8
99999.8
99999.8
100000
100000
100000
100000
100001
100001
100001
100001
100001
100001
100001
100001
100001
100001
100001
99999.6
99999.4
99999.4
99999.4
99999.5
99999.6
99999.7
99999.9
100000
100000
100000
100001
100001
100001
100001
100001
100001
100001
100001
100001
100001
99999
99998.7
99998.8
99998.8
99999
99999.1
99999.3
99999.6
99999.8
100000
100000
100001
100001
100001
100001
100001
100001
100001
100002
100002
100002
99997.3
99997.7
99997.8
99998
99998.2
99998.5
99998.8
99999.2
99999.6
100000
100000
100001
100001
100001
100002
100002
100002
100002
100002
100002
100002
99996.1
99996.5
99996.7
99997
99997.3
99997.7
99998.2
99998.7
99999.2
99999.8
100000
100001
100001
100002
100002
100003
100003
100003
100003
100003
100003
99995.2
99995.3
99995.5
99995.8
99996.3
99996.8
99997.4
99998.1
99998.8
99999.6
100000
100001
100002
100003
100003
100004
100004
100005
100005
100005
100005
99993.6
99993.8
99994
99994.4
99995
99995.6
99996.4
99997.3
99998.3
99999.4
100000
100002
100003
100004
100004
100005
100006
100006
100006
100007
100007
99991.8
99991.9
99992.2
99992.7
99993.4
99994.3
99995.3
99996.5
99997.8
99999.2
100001
100002
100003
100005
100006
100007
100007
100008
100008
100009
100009
99989.5
99989.7
99990.1
99990.7
99991.6
99992.7
99994
99995.5
99997.2
99998.9
100001
100003
100004
100006
100007
100008
100009
100010
100011
100011
100012
99986.8
99987.1
99987.6
99988.4
99989.5
99990.9
99992.5
99994.4
99996.5
99998.6
100001
100003
100005
100007
100009
100011
100012
100013
100013
100014
100014
99983.7
99984
99984.6
99985.6
99987
99988.8
99990.9
99993.2
99995.7
99998.3
100001
100004
100006
100009
100011
100013
100014
100016
100016
100017
100016
99979.9
99980.3
99981.1
99982.5
99984.3
99986.5
99989.1
99991.9
99994.9
99998
100001
100004
100007
100010
100013
100016
100018
100019
100020
100021
100020
99975.4
99975.9
99977.1
99978.8
99981.2
99984
99987.2
99990.5
99994.1
99997.7
100001
100005
100009
100012
100015
100019
100021
100024
100025
100026
100026
99969.9
99970.7
99972.3
99974.8
99977.9
99981.4
99985.2
99989.2
99993.3
99997.4
100002
100006
100010
100014
100018
100022
100025
100028
100031
100032
100033
99963
99964.5
99966.9
99970.4
99974.5
99978.9
99983.4
99988
99992.6
99997.2
100002
100006
100011
100015
100020
100025
100029
100034
100038
100039
100045
99954.3
99957.2
99960.8
99965.8
99971.1
99976.6
99981.9
99987.1
99992.1
99997
100002
100007
100012
100017
100022
100027
100033
100039
100044
100048
100054
99941
99948.2
99954
99961.3
99968.2
99974.7
99980.7
99986.3
99991.7
99996.8
100002
100007
100012
100018
100023
100030
100036
100043
100051
100057
100064
99928.4
99940.7
99948.4
99958
99966.2
99973.4
99979.9
99985.9
99991.4
99996.8
100002
100007
100013
100018
100024
100031
100038
100047
100056
100064
100076
99884.6
99928.1
99941.1
99955.2
99964.8
99972.7
99979.6
99985.7
99991.3
99996.7
100002
100007
100013
100019
100025
100032
100040
100050
100064
100077
100120
)
;

boundaryField
{
    movingWall
    {
        type            zeroGradient;
    }
    fixedWalls
    {
        type            zeroGradient;
    }
    frontAndBack
    {
        type            empty;
    }
}


// ************************************************************************* //
