/*--------------------------------*- C++ -*----------------------------------*\
| =========                 |                                                 |
| \\      /  F ield         | OpenFOAM: The Open Source CFD Toolbox           |
|  \\    /   O peration     | Version:  4.1                                   |
|   \\  /    A nd           | Web:      www.OpenFOAM.org                      |
|    \\/     M anipulation  |                                                 |
\*---------------------------------------------------------------------------*/
FoamFile
{
    version     2.0;
    format      ascii;
    class       volVectorField;
    location    "0.19";
    object      U;
}
// * * * * * * * * * * * * * * * * * * * * * * * * * * * * * * * * * * * * * //

dimensions      [0 1 -1 0 0 0 0];

internalField   nonuniform List<vector> 
100
(
(-0.00131594 0.000688517 0)
(-0.00404598 0.00107034 0)
(-0.0118608 0.00147582 0)
(-0.0165336 0.000733045 0)
(-0.0216135 0.000508265 0)
(-0.023254 -0.000874073 0)
(-0.021359 -0.00158218 0)
(-0.0168855 -0.00311879 0)
(-0.00673093 -0.00299168 0)
(-0.00210365 -0.00223223 0)
(-0.00289732 0.00472277 0)
(-0.011049 0.00940732 0)
(-0.0267317 0.011307 0)
(-0.0369501 0.00880856 0)
(-0.0464313 0.00661146 0)
(-0.0494139 0.000335703 0)
(-0.0456297 -0.00445414 0)
(-0.0360822 -0.0117982 0)
(-0.0164828 -0.0116955 0)
(-0.00410017 -0.00658828 0)
(-0.0038274 0.0146376 0)
(-0.0152517 0.0246948 0)
(-0.0353726 0.0276073 0)
(-0.0490533 0.020002 0)
(-0.0619153 0.013274 0)
(-0.0669918 -0.00218901 0)
(-0.0640417 -0.0147161 0)
(-0.0524994 -0.0328077 0)
(-0.0266314 -0.0350939 0)
(-0.00664799 -0.023035 0)
(-0.00611086 0.023606 0)
(-0.0212424 0.0406552 0)
(-0.0467768 0.0452713 0)
(-0.0645954 0.0350013 0)
(-0.081657 0.0250504 0)
(-0.090778 0.00225158 0)
(-0.0909427 -0.018277 0)
(-0.0792246 -0.0492534 0)
(-0.045708 -0.0570582 0)
(-0.0121075 -0.0394152 0)
(-0.00720937 0.0422186 0)
(-0.0244459 0.0650324 0)
(-0.0536819 0.07146 0)
(-0.0750882 0.0541462 0)
(-0.0977476 0.0399125 0)
(-0.113215 0.00614403 0)
(-0.12105 -0.0260875 0)
(-0.112906 -0.0792458 0)
(-0.0740985 -0.10285 0)
(-0.0209664 -0.0817755 0)
(-0.0139622 0.0546398 0)
(-0.0369761 0.0864086 0)
(-0.0714961 0.096012 0)
(-0.0970957 0.0783393 0)
(-0.123475 0.0638981 0)
(-0.144675 0.0251482 0)
(-0.160785 -0.0173192 0)
(-0.157377 -0.0960993 0)
(-0.116298 -0.147945 0)
(-0.037031 -0.133727 0)
(-0.0152677 0.0940944 0)
(-0.0371314 0.121819 0)
(-0.070452 0.132801 0)
(-0.0931178 0.10469 0)
(-0.117718 0.0883082 0)
(-0.136158 0.0415185 0)
(-0.158045 -0.0129785 0)
(-0.160315 -0.126073 0)
(-0.134767 -0.224623 0)
(-0.0506885 -0.238715 0)
(-0.0396603 0.105271 0)
(-0.0685719 0.140056 0)
(-0.0803608 0.152308 0)
(-0.0841802 0.12439 0)
(-0.0833542 0.108457 0)
(-0.0788802 0.0647795 0)
(-0.0918884 0.00972783 0)
(-0.0933383 -0.118439 0)
(-0.104769 -0.253531 0)
(-0.051935 -0.317709 0)
(-0.0363028 0.205539 0)
(-0.0240934 0.160808 0)
(0.0121652 0.151989 0)
(0.0575179 0.105659 0)
(0.0949002 0.0853178 0)
(0.142741 0.0474251 0)
(0.153043 0.00383786 0)
(0.167654 -0.115354 0)
(0.0887406 -0.264769 0)
(0.0202545 -0.402713 0)
(0.146683 0.159908 0)
(0.234469 0.0887291 0)
(0.38416 0.0723701 0)
(0.463214 0.0408055 0)
(0.526351 0.0265261 0)
(0.577091 0.00730037 0)
(0.579202 -0.00800587 0)
(0.576324 -0.0478851 0)
(0.415355 -0.0921808 0)
(0.221509 -0.195404 0)
)
;

boundaryField
{
    movingWall
    {
        type            fixedValue;
        value           uniform (1 0 0);
    }
    fixedWalls
    {
        type            noSlip;
    }
    frontAndBack
    {
        type            empty;
    }
}


// ************************************************************************* //
