/*--------------------------------*- C++ -*----------------------------------*\
| =========                 |                                                 |
| \\      /  F ield         | OpenFOAM: The Open Source CFD Toolbox           |
|  \\    /   O peration     | Version:  4.1                                   |
|   \\  /    A nd           | Web:      www.OpenFOAM.org                      |
|    \\/     M anipulation  |                                                 |
\*---------------------------------------------------------------------------*/
FoamFile
{
    version     2.0;
    format      ascii;
    class       volVectorField;
    location    "0.09";
    object      U;
}
// * * * * * * * * * * * * * * * * * * * * * * * * * * * * * * * * * * * * * //

dimensions      [0 1 -1 0 0 0 0];

internalField   nonuniform List<vector> 
6400
(
(7.87823e-06 -7.84293e-06 0)
(2.9714e-05 -1.13977e-05 0)
(4.7563e-05 -7.87088e-06 0)
(5.53606e-05 1.29346e-06 0)
(4.89547e-05 1.41153e-05 0)
(2.59047e-05 2.90475e-05 0)
(-1.49898e-05 4.49636e-05 0)
(-7.40277e-05 6.10652e-05 0)
(-0.00015087 7.67918e-05 0)
(-0.000244732 9.17542e-05 0)
(-0.000354522 0.000105686 0)
(-0.00047894 0.000118409 0)
(-0.000616551 0.000129808 0)
(-0.000765838 0.000139815 0)
(-0.000925241 0.000148396 0)
(-0.00109318 0.000155541 0)
(-0.00126809 0.000161259 0)
(-0.0014484 0.000165571 0)
(-0.00163262 0.000168512 0)
(-0.00181924 0.000170119 0)
(-0.00200685 0.000170439 0)
(-0.00219406 0.000169521 0)
(-0.00237956 0.000167418 0)
(-0.00256207 0.000164185 0)
(-0.00274039 0.000159878 0)
(-0.00291339 0.000154555 0)
(-0.00307998 0.000148275 0)
(-0.00323916 0.000141096 0)
(-0.00338997 0.000133079 0)
(-0.00353153 0.000124284 0)
(-0.00366303 0.000114771 0)
(-0.00378372 0.000104602 0)
(-0.00389291 9.38383e-05 0)
(-0.00398999 8.25418e-05 0)
(-0.00407442 7.07755e-05 0)
(-0.0041457 5.86029e-05 0)
(-0.00420345 4.60883e-05 0)
(-0.00424731 3.32971e-05 0)
(-0.00427702 2.02956e-05 0)
(-0.0042924 7.15099e-06 0)
(-0.00429332 -6.06809e-06 0)
(-0.00427973 -1.9292e-05 0)
(-0.00425168 -3.24499e-05 0)
(-0.00420927 -4.54698e-05 0)
(-0.0041527 -5.82785e-05 0)
(-0.00408222 -7.0802e-05 0)
(-0.00399821 -8.29651e-05 0)
(-0.00390108 -9.46921e-05 0)
(-0.00379136 -0.000105907 0)
(-0.00366964 -0.000116532 0)
(-0.00353662 -0.000126492 0)
(-0.00339305 -0.000135709 0)
(-0.00323978 -0.000144109 0)
(-0.00307776 -0.000151616 0)
(-0.00290798 -0.000158158 0)
(-0.00273154 -0.000163663 0)
(-0.00254961 -0.000168063 0)
(-0.00236342 -0.000171292 0)
(-0.00217429 -0.000173289 0)
(-0.00198359 -0.000173998 0)
(-0.00179275 -0.000173367 0)
(-0.00160327 -0.00017135 0)
(-0.00141666 -0.000167912 0)
(-0.00123451 -0.000163023 0)
(-0.00105841 -0.000156668 0)
(-0.000889959 -0.000148842 0)
(-0.00073078 -0.00013956 0)
(-0.000582456 -0.000128857 0)
(-0.000446533 -0.000116795 0)
(-0.000324479 -0.000103471 0)
(-0.000217651 -8.90313e-05 0)
(-0.000127235 -7.36846e-05 0)
(-5.41779e-05 -5.77272e-05 0)
(9.09787e-07 -4.15749e-05 0)
(3.7891e-05 -2.58089e-05 0)
(5.72841e-05 -1.12387e-05 0)
(6.05127e-05 1.01533e-06 0)
(5.02202e-05 9.44203e-06 0)
(3.06983e-05 1.21581e-05 0)
(8.02475e-06 7.9585e-06 0)
(1.1562e-05 -2.96528e-05 0)
(4.45949e-05 -4.4111e-05 0)
(6.37552e-05 -2.61652e-05 0)
(5.50115e-05 1.40206e-05 0)
(8.50353e-06 6.83707e-05 0)
(-8.17784e-05 0.000130869 0)
(-0.000218979 0.000197134 0)
(-0.000404063 0.000264024 0)
(-0.000636382 0.000329307 0)
(-0.000914105 0.000391416 0)
(-0.00123455 0.000449265 0)
(-0.00159442 0.000502119 0)
(-0.00199001 0.000549498 0)
(-0.00241734 0.00059111 0)
(-0.00287225 0.000626804 0)
(-0.0033505 0.000656528 0)
(-0.00384783 0.000680309 0)
(-0.00435999 0.000698231 0)
(-0.00488281 0.000710421 0)
(-0.00541219 0.000717038 0)
(-0.00594416 0.000718267 0)
(-0.00647487 0.000714309 0)
(-0.00700062 0.000705381 0)
(-0.00751786 0.00069171 0)
(-0.00802319 0.000673529 0)
(-0.0085134 0.000651079 0)
(-0.00898545 0.000624604 0)
(-0.00943647 0.000594351 0)
(-0.00986376 0.000560572 0)
(-0.0102648 0.000523519 0)
(-0.0106374 0.000483446 0)
(-0.0109792 0.000440612 0)
(-0.0112885 0.000395274 0)
(-0.0115634 0.000347696 0)
(-0.0118024 0.000298142 0)
(-0.0120041 0.00024688 0)
(-0.0121674 0.000194181 0)
(-0.0122913 0.000140321 0)
(-0.0123752 8.5579e-05 0)
(-0.0124183 3.02388e-05 0)
(-0.0124205 -2.54106e-05 0)
(-0.0123816 -8.10759e-05 0)
(-0.0123017 -0.000136459 0)
(-0.0121812 -0.000191256 0)
(-0.0120205 -0.00024516 0)
(-0.0118206 -0.00029786 0)
(-0.0115823 -0.000349039 0)
(-0.0113069 -0.000398381 0)
(-0.010996 -0.000445565 0)
(-0.0106511 -0.000490269 0)
(-0.0102743 -0.000532173 0)
(-0.00986777 -0.000570957 0)
(-0.00943385 -0.000606305 0)
(-0.0089752 -0.000637904 0)
(-0.00849468 -0.000665451 0)
(-0.00799537 -0.000688648 0)
(-0.00748052 -0.000707212 0)
(-0.00695364 -0.000720872 0)
(-0.00641838 -0.000729372 0)
(-0.00587857 -0.000732478 0)
(-0.0053382 -0.00072998 0)
(-0.00480141 -0.000721694 0)
(-0.00427242 -0.000707472 0)
(-0.00375556 -0.0006872 0)
(-0.00325521 -0.000660818 0)
(-0.00277574 -0.000628318 0)
(-0.00232152 -0.000589764 0)
(-0.00189681 -0.000545311 0)
(-0.00150572 -0.000495223 0)
(-0.0011521 -0.000439913 0)
(-0.000839467 -0.000379984 0)
(-0.000570811 -0.000316297 0)
(-0.000348453 -0.000250055 0)
(-0.000173786 -0.000182932 0)
(-4.6959e-05 -0.000117241 0)
(3.35256e-05 -5.61651e-05 0)
(7.13463e-05 -4.05774e-06 0)
(7.29898e-05 3.32064e-05 0)
(4.86455e-05 4.78958e-05 0)
(1.24179e-05 3.05623e-05 0)
(8.23626e-06 -4.76775e-05 0)
(2.74383e-05 -6.33338e-05 0)
(2.00453e-05 -1.82811e-05 0)
(-3.20445e-05 6.82015e-05 0)
(-0.000142013 0.000181281 0)
(-0.000318143 0.000309829 0)
(-0.000564936 0.000445604 0)
(-0.000883896 0.000582572 0)
(-0.00127423 0.000716357 0)
(-0.0017334 0.000843819 0)
(-0.00225755 0.000962733 0)
(-0.00284188 0.00107156 0)
(-0.00348089 0.00116926 0)
(-0.00416861 0.00125518 0)
(-0.00489875 0.00132896 0)
(-0.00566484 0.00139043 0)
(-0.00646034 0.00143962 0)
(-0.00727869 0.00147665 0)
(-0.0081134 0.00150175 0)
(-0.00895809 0.00151524 0)
(-0.00980654 0.00151746 0)
(-0.0106527 0.00150882 0)
(-0.0114908 0.00148976 0)
(-0.0123151 0.00146074 0)
(-0.0131203 0.00142224 0)
(-0.0139014 0.00137475 0)
(-0.0146535 0.00131878 0)
(-0.015372 0.00125485 0)
(-0.0160526 0.00118348 0)
(-0.0166915 0.0011052 0)
(-0.0172848 0.00102054 0)
(-0.0178292 0.000930059 0)
(-0.0183216 0.000834293 0)
(-0.0187592 0.000733798 0)
(-0.0191396 0.000629134 0)
(-0.0194606 0.000520869 0)
(-0.0197203 0.000409578 0)
(-0.0199173 0.000295843 0)
(-0.0200504 0.000180258 0)
(-0.0201187 6.34234e-05 0)
(-0.0201217 -5.40495e-05 0)
(-0.0200592 -0.00017154 0)
(-0.0199315 -0.000288417 0)
(-0.0197391 -0.000404041 0)
(-0.0194828 -0.000517763 0)
(-0.019164 -0.000628926 0)
(-0.0187842 -0.000736866 0)
(-0.0183454 -0.000840915 0)
(-0.0178501 -0.000940398 0)
(-0.0173008 -0.00103464 0)
(-0.0167008 -0.00112298 0)
(-0.0160535 -0.00120473 0)
(-0.0153627 -0.00127925 0)
(-0.0146326 -0.00134588 0)
(-0.0138677 -0.00140398 0)
(-0.0130729 -0.00145295 0)
(-0.0122534 -0.00149219 0)
(-0.0114146 -0.00152115 0)
(-0.0105623 -0.0015393 0)
(-0.0097026 -0.00154618 0)
(-0.00884166 -0.00154135 0)
(-0.00798598 -0.00152446 0)
(-0.00714215 -0.00149522 0)
(-0.0063169 -0.00145341 0)
(-0.00551699 -0.00139894 0)
(-0.0047492 -0.00133183 0)
(-0.0040202 -0.00125225 0)
(-0.0033365 -0.00116057 0)
(-0.0027043 -0.00105738 0)
(-0.0021294 -0.000943566 0)
(-0.001617 -0.00082042 0)
(-0.00117147 -0.000689728 0)
(-0.000796135 -0.000553944 0)
(-0.000492904 -0.000416416 0)
(-0.000261861 -0.000281675 0)
(-0.000100744 -0.000155832 0)
(-4.30375e-06 -4.70788e-05 0)
(3.6417e-05 3.36979e-05 0)
(3.50841e-05 7.22197e-05 0)
(9.9939e-06 5.02537e-05 0)
(-6.58633e-07 -5.59855e-05 0)
(-1.16764e-05 -5.53051e-05 0)
(-6.45788e-05 3.35363e-05 0)
(-0.000179119 0.000183166 0)
(-0.000369992 0.000372292 0)
(-0.000646541 0.000584635 0)
(-0.00101389 0.000807886 0)
(-0.00147373 0.00103283 0)
(-0.00202503 0.00125264 0)
(-0.00266463 0.0014623 0)
(-0.00338775 0.00165817 0)
(-0.00418835 0.0018377 0)
(-0.00505948 0.0019991 0)
(-0.00599354 0.0021412 0)
(-0.00698247 0.00226332 0)
(-0.00801791 0.00236512 0)
(-0.00909138 0.00244654 0)
(-0.0101943 0.00250774 0)
(-0.0113183 0.00254905 0)
(-0.0124549 0.00257093 0)
(-0.0135958 0.00257393 0)
(-0.0147332 0.0025587 0)
(-0.0158594 0.00252594 0)
(-0.0169667 0.0024764 0)
(-0.0180482 0.00241087 0)
(-0.0190971 0.00233016 0)
(-0.0201068 0.00223512 0)
(-0.0210713 0.00212662 0)
(-0.0219849 0.00200553 0)
(-0.0228423 0.00187275 0)
(-0.0236385 0.00172917 0)
(-0.0243689 0.00157573 0)
(-0.0250295 0.00141333 0)
(-0.0256165 0.00124293 0)
(-0.0261266 0.00106547 0)
(-0.026557 0.000881922 0)
(-0.0269051 0.000693257 0)
(-0.0271689 0.000500469 0)
(-0.027347 0.000304564 0)
(-0.0274381 0.000106564 0)
(-0.0274416 -9.24931e-05 0)
(-0.0273572 -0.000291554 0)
(-0.0271854 -0.000489549 0)
(-0.0269267 -0.000685393 0)
(-0.0265824 -0.000877987 0)
(-0.0261542 -0.00106622 0)
(-0.0256444 -0.00124897 0)
(-0.0250554 -0.00142511 0)
(-0.0243907 -0.00159351 0)
(-0.0236537 -0.00175303 0)
(-0.0228487 -0.00190253 0)
(-0.0219803 -0.00204091 0)
(-0.0210535 -0.00216705 0)
(-0.0200741 -0.00227986 0)
(-0.0190479 -0.0023783 0)
(-0.0179816 -0.00246134 0)
(-0.0168819 -0.002528 0)
(-0.0157562 -0.00257737 0)
(-0.014612 -0.0026086 0)
(-0.0134574 -0.0026209 0)
(-0.0123007 -0.0026136 0)
(-0.0111502 -0.00258613 0)
(-0.0100148 -0.00253803 0)
(-0.00890319 -0.00246902 0)
(-0.00782422 -0.00237896 0)
(-0.00678671 -0.00226797 0)
(-0.00579931 -0.00213638 0)
(-0.00487042 -0.00198488 0)
(-0.004008 -0.00181452 0)
(-0.00321944 -0.00162684 0)
(-0.0025113 -0.00142402 0)
(-0.00188912 -0.00120902 0)
(-0.00135702 -0.000985839 0)
(-0.000917393 -0.000759812 0)
(-0.000570399 -0.000538013 0)
(-0.000313427 -0.000329782 0)
(-0.000140429 -0.000147375 0)
(-4.12183e-05 -6.75725e-06 0)
(-4.46823e-07 7.14688e-05 0)
(2.00461e-06 6.11494e-05 0)
(-1.32122e-05 -5.04988e-05 0)
(-6.49825e-05 -1.02508e-05 0)
(-0.00017598 0.000142453 0)
(-0.000366185 0.000373688 0)
(-0.000650526 0.000656497 0)
(-0.00103841 0.000969816 0)
(-0.0015349 0.00129737 0)
(-0.00214141 0.00162672 0)
(-0.00285647 0.00194843 0)
(-0.00367625 0.00225546 0)
(-0.00459508 0.00254258 0)
(-0.00560585 0.002806 0)
(-0.00670037 0.00304307 0)
(-0.00786965 0.00325196 0)
(-0.00910412 0.00343156 0)
(-0.0103938 0.00358128 0)
(-0.0117286 0.00370092 0)
(-0.0130982 0.00379064 0)
(-0.0144924 0.00385084 0)
(-0.015901 0.00388215 0)
(-0.0173141 0.00388532 0)
(-0.0187221 0.00386128 0)
(-0.0201154 0.00381101 0)
(-0.0214851 0.00373562 0)
(-0.0228223 0.00363625 0)
(-0.0241189 0.00351411 0)
(-0.0253668 0.00337044 0)
(-0.0265586 0.00320653 0)
(-0.0276874 0.00302369 0)
(-0.0287464 0.00282325 0)
(-0.0297298 0.00260657 0)
(-0.0306318 0.00237502 0)
(-0.0314474 0.00213001 0)
(-0.0321721 0.00187294 0)
(-0.0328017 0.00160526 0)
(-0.0333327 0.00132841 0)
(-0.0337621 0.00104388 0)
(-0.0340874 0.000753156 0)
(-0.0343068 0.000457764 0)
(-0.0344187 0.000159246 0)
(-0.0344225 -0.000140832 0)
(-0.0343179 -0.000440879 0)
(-0.0341052 -0.000739284 0)
(-0.0337854 -0.00103441 0)
(-0.0333599 -0.00132461 0)
(-0.0328309 -0.00160821 0)
(-0.0322011 -0.00188352 0)
(-0.0314738 -0.00214885 0)
(-0.0306528 -0.0024025 0)
(-0.0297428 -0.00264277 0)
(-0.0287487 -0.00286797 0)
(-0.0276764 -0.00307644 0)
(-0.0265321 -0.00326651 0)
(-0.0253225 -0.00343659 0)
(-0.0240552 -0.00358509 0)
(-0.022738 -0.00371052 0)
(-0.0213793 -0.00381143 0)
(-0.0199881 -0.00388648 0)
(-0.0185735 -0.00393443 0)
(-0.0171454 -0.00395414 0)
(-0.0157138 -0.00394466 0)
(-0.0142889 -0.00390516 0)
(-0.0128812 -0.00383504 0)
(-0.0115015 -0.00373392 0)
(-0.0101602 -0.00360169 0)
(-0.00886808 -0.00343858 0)
(-0.00763539 -0.00324519 0)
(-0.00647217 -0.00302259 0)
(-0.00538788 -0.00277245 0)
(-0.00439126 -0.0024971 0)
(-0.00349009 -0.00219979 0)
(-0.0026909 -0.00188485 0)
(-0.00199861 -0.00155803 0)
(-0.00141616 -0.00122683 0)
(-0.000944063 -0.00090104 0)
(-0.000579816 -0.000593292 0)
(-0.000317295 -0.000319834 0)
(-0.000146074 -0.000101395 0)
(-5.03893e-05 3.58146e-05 0)
(-9.70104e-06 5.91371e-05 0)
(-2.7982e-05 -2.87417e-05 0)
(-0.000126908 7.80561e-05 0)
(-0.00030397 0.000317227 0)
(-0.000578577 0.000649874 0)
(-0.000965033 0.00104436 0)
(-0.00147206 0.00147543 0)
(-0.00210403 0.00192315 0)
(-0.00286169 0.00237198 0)
(-0.00374282 0.00280992 0)
(-0.00474279 0.0032278 0)
(-0.00585501 0.00361873 0)
(-0.00707136 0.00397759 0)
(-0.00838251 0.00430072 0)
(-0.00977823 0.00458556 0)
(-0.0112476 0.00483048 0)
(-0.0127793 0.00503453 0)
(-0.0143618 0.00519737 0)
(-0.0159831 0.00531909 0)
(-0.0176317 0.00540016 0)
(-0.0192958 0.00544135 0)
(-0.0209639 0.00544364 0)
(-0.0226248 0.00540823 0)
(-0.0242676 0.00533647 0)
(-0.0258818 0.0052298 0)
(-0.0274572 0.0050898 0)
(-0.0289842 0.00491811 0)
(-0.0304535 0.00471644 0)
(-0.0318564 0.00448656 0)
(-0.0331848 0.00423028 0)
(-0.0344309 0.00394945 0)
(-0.0355878 0.00364596 0)
(-0.0366488 0.00332173 0)
(-0.037608 0.00297869 0)
(-0.0384601 0.00261884 0)
(-0.0392002 0.00224417 0)
(-0.0398244 0.00185672 0)
(-0.040329 0.00145856 0)
(-0.0407112 0.00105178 0)
(-0.0409687 0.000638518 0)
(-0.0410999 0.000220922 0)
(-0.041104 -0.000198813 0)
(-0.0409806 -0.000618463 0)
(-0.0407301 -0.00103577 0)
(-0.0403537 -0.00144847 0)
(-0.0398531 -0.00185423 0)
(-0.0392308 -0.00225073 0)
(-0.03849 -0.00263563 0)
(-0.0376346 -0.00300657 0)
(-0.0366691 -0.00336118 0)
(-0.0355989 -0.00369711 0)
(-0.0344298 -0.00401202 0)
(-0.0331685 -0.00430358 0)
(-0.0318225 -0.00456952 0)
(-0.0303995 -0.00480762 0)
(-0.0289083 -0.00501571 0)
(-0.027358 -0.00519173 0)
(-0.0257584 -0.00533371 0)
(-0.0241199 -0.00543981 0)
(-0.0224531 -0.00550835 0)
(-0.0207695 -0.00553782 0)
(-0.0190805 -0.00552692 0)
(-0.017398 -0.00547459 0)
(-0.0157342 -0.00538004 0)
(-0.0141012 -0.00524285 0)
(-0.0125114 -0.00506294 0)
(-0.0109767 -0.0048407 0)
(-0.00950916 -0.00457708 0)
(-0.00812009 -0.00427363 0)
(-0.00682031 -0.00393269 0)
(-0.00561979 -0.00355756 0)
(-0.00452741 -0.00315266 0)
(-0.00355067 -0.00272382 0)
(-0.00269535 -0.00227865 0)
(-0.00196511 -0.00182692 0)
(-0.0013611 -0.00138112 0)
(-0.000881362 -0.000957079 0)
(-0.000520314 -0.000574768 0)
(-0.000268046 -0.000259141 0)
(-0.000109227 -4.11057e-05 0)
(-2.36946e-05 4.16727e-05 0)
(-4.39647e-05 1.06568e-05 0)
(-0.000193587 0.000213338 0)
(-0.000441379 0.000563391 0)
(-0.000805782 0.00101836 0)
(-0.00129994 0.00154293 0)
(-0.00193133 0.00210832 0)
(-0.00270318 0.00269138 0)
(-0.00361516 0.00327373 0)
(-0.00466406 0.00384091 0)
(-0.00584422 0.0043817 0)
(-0.00714808 0.00488749 0)
(-0.00856647 0.00535181 0)
(-0.010089 0.00576993 0)
(-0.0117042 0.00613848 0)
(-0.0134 0.00645525 0)
(-0.0151639 0.00671891 0)
(-0.0169828 0.00692889 0)
(-0.0188437 0.00708521 0)
(-0.0207336 0.00718837 0)
(-0.0226392 0.00723929 0)
(-0.0245479 0.00723919 0)
(-0.026447 0.00718954 0)
(-0.0283243 0.00709206 0)
(-0.0301679 0.00694862 0)
(-0.0319665 0.00676123 0)
(-0.0337091 0.00653203 0)
(-0.0353853 0.00626323 0)
(-0.0369854 0.00595716 0)
(-0.0385001 0.00561619 0)
(-0.0399207 0.00524275 0)
(-0.0412393 0.00483933 0)
(-0.0424484 0.00440846 0)
(-0.0435413 0.00395272 0)
(-0.044512 0.00347472 0)
(-0.0453551 0.00297713 0)
(-0.0460659 0.00246263 0)
(-0.0466405 0.00193398 0)
(-0.0470755 0.00139395 0)
(-0.0473686 0.000845358 0)
(-0.0475178 0.000291077 0)
(-0.0475222 -0.00026599 0)
(-0.0473814 -0.000822898 0)
(-0.0470959 -0.00137666 0)
(-0.046667 -0.00192426 0)
(-0.0460967 -0.00246264 0)
(-0.0453879 -0.00298871 0)
(-0.044544 -0.00349939 0)
(-0.0435696 -0.00399156 0)
(-0.0424697 -0.0044621 0)
(-0.0412504 -0.00490792 0)
(-0.0399184 -0.00532591 0)
(-0.0384813 -0.00571306 0)
(-0.0369472 -0.00606636 0)
(-0.0353251 -0.0063829 0)
(-0.0336248 -0.00665986 0)
(-0.0318566 -0.00689454 0)
(-0.0300314 -0.00708439 0)
(-0.028161 -0.00722703 0)
(-0.0262574 -0.00732029 0)
(-0.0243332 -0.00736222 0)
(-0.0224014 -0.00735119 0)
(-0.0204753 -0.00728587 0)
(-0.0185684 -0.00716531 0)
(-0.0166944 -0.00698902 0)
(-0.014867 -0.00675701 0)
(-0.0130995 -0.00646987 0)
(-0.0114053 -0.00612891 0)
(-0.00979695 -0.00573627 0)
(-0.00828656 -0.00529505 0)
(-0.00688524 -0.00480955 0)
(-0.00560294 -0.00428546 0)
(-0.00444816 -0.0037302 0)
(-0.00342765 -0.00315325 0)
(-0.002546 -0.00256663 0)
(-0.00180526 -0.00198543 0)
(-0.00120444 -0.00142848 0)
(-0.000738949 -0.00091906 0)
(-0.000399953 -0.000485737 0)
(-0.000173088 -0.000163174 0)
(-3.89694e-05 7.31215e-06 0)
(-6.04912e-05 6.83111e-05 0)
(-0.000262417 0.000397526 0)
(-0.000583287 0.000884079 0)
(-0.00104044 0.00148312 0)
(-0.00164554 0.00215659 0)
(-0.00240448 0.00287284 0)
(-0.00331897 0.00360601 0)
(-0.0043873 0.00433517 0)
(-0.00560498 0.00504363 0)
(-0.0069652 0.0057182 0)
(-0.00845925 0.00634866 0)
(-0.0100769 0.00692717 0)
(-0.0118065 0.00744792 0)
(-0.0136357 0.00790671 0)
(-0.0155512 0.00830069 0)
(-0.0175392 0.00862815 0)
(-0.0195856 0.00888825 0)
(-0.0216761 0.00908092 0)
(-0.0237964 0.00920669 0)
(-0.0259322 0.0092666 0)
(-0.0280694 0.00926212 0)
(-0.0301943 0.00919504 0)
(-0.0322934 0.00906743 0)
(-0.0343538 0.00888163 0)
(-0.0363628 0.00864012 0)
(-0.0383085 0.00834557 0)
(-0.0401794 0.00800077 0)
(-0.0419648 0.00760863 0)
(-0.0436544 0.00717214 0)
(-0.0452387 0.00669439 0)
(-0.0467088 0.00617852 0)
(-0.0480567 0.00562774 0)
(-0.0492748 0.00504534 0)
(-0.0503566 0.00443463 0)
(-0.0512961 0.00379901 0)
(-0.052088 0.00314191 0)
(-0.0527281 0.00246682 0)
(-0.0532128 0.00177728 0)
(-0.0535392 0.00107689 0)
(-0.0537054 0.000369302 0)
(-0.0537102 -0.000341788 0)
(-0.0535534 -0.00105263 0)
(-0.0532355 -0.00175941 0)
(-0.0527578 -0.0024583 0)
(-0.0521226 -0.00314542 0)
(-0.0513331 -0.00381684 0)
(-0.0503931 -0.00446864 0)
(-0.0493076 -0.00509687 0)
(-0.0480823 -0.00569757 0)
(-0.0467237 -0.00626682 0)
(-0.0452393 -0.00680071 0)
(-0.0436374 -0.00729541 0)
(-0.041927 -0.00774713 0)
(-0.0401181 -0.00815221 0)
(-0.0382212 -0.0085071 0)
(-0.036248 -0.00880842 0)
(-0.0342103 -0.00905295 0)
(-0.0321209 -0.00923774 0)
(-0.0299931 -0.00936008 0)
(-0.0278408 -0.00941759 0)
(-0.0256782 -0.00940824 0)
(-0.0235199 -0.00933043 0)
(-0.0213807 -0.00918305 0)
(-0.0192754 -0.00896554 0)
(-0.0172191 -0.00867801 0)
(-0.0152265 -0.0083213 0)
(-0.013312 -0.00789713 0)
(-0.0114895 -0.00740823 0)
(-0.00977225 -0.00685854 0)
(-0.00817245 -0.00625338 0)
(-0.00670119 -0.00559976 0)
(-0.00536806 -0.00490667 0)
(-0.00418087 -0.00418545 0)
(-0.00314535 -0.00345028 0)
(-0.00226473 -0.00271869 0)
(-0.00153928 -0.00201219 0)
(-0.000965781 -0.00135696 0)
(-0.000536831 -0.000784538 0)
(-0.000239339 -0.000332479 0)
(-5.48476e-05 -4.46264e-05 0)
(-7.71288e-05 0.000144344 0)
(-0.000331699 0.000631325 0)
(-0.000726414 0.00128072 0)
(-0.00127752 0.0020462 0)
(-0.0019951 0.00288774 0)
(-0.0028832 0.00377147 0)
(-0.00394178 0.00466928 0)
(-0.0051675 0.00555807 0)
(-0.00655438 0.00641914 0)
(-0.00809427 0.00723755 0)
(-0.00977721 0.0080015 0)
(-0.0115917 0.0087019 0)
(-0.0135252 0.00933184 0)
(-0.0155639 0.00988634 0)
(-0.0176936 0.0103619 0)
(-0.0198993 0.0107564 0)
(-0.0221659 0.0110688 0)
(-0.0244778 0.0112988 0)
(-0.0268198 0.011447 0)
(-0.0291762 0.0115146 0)
(-0.0315321 0.0115033 0)
(-0.0338725 0.0114153 0)
(-0.0361829 0.0112529 0)
(-0.0384493 0.0110191 0)
(-0.0406581 0.0107167 0)
(-0.0427963 0.0103491 0)
(-0.0448515 0.00991963 0)
(-0.0468121 0.00943186 0)
(-0.0486669 0.00888944 0)
(-0.0504057 0.00829615 0)
(-0.0520188 0.00765587 0)
(-0.0534975 0.00697256 0)
(-0.0548337 0.00625023 0)
(-0.0560201 0.00549301 0)
(-0.0570504 0.00470507 0)
(-0.0579188 0.00389064 0)
(-0.0586207 0.00305404 0)
(-0.0591522 0.00219965 0)
(-0.0595103 0.00133191 0)
(-0.0596927 0.000455323 0)
(-0.0596984 -0.000425539 0)
(-0.0595268 -0.00130604 0)
(-0.0591788 -0.0021815 0)
(-0.0586556 -0.00304718 0)
(-0.0579598 -0.00389828 0)
(-0.0570948 -0.00472999 0)
(-0.0560648 -0.00553745 0)
(-0.0548752 -0.00631582 0)
(-0.0535321 -0.00706023 0)
(-0.0520427 -0.00776586 0)
(-0.0504149 -0.00842792 0)
(-0.0486578 -0.00904169 0)
(-0.0467812 -0.00960254 0)
(-0.0447959 -0.010106 0)
(-0.0427132 -0.0105477 0)
(-0.0405457 -0.0109235 0)
(-0.0383062 -0.0112296 0)
(-0.0360087 -0.0114623 0)
(-0.0336674 -0.0116184 0)
(-0.0312972 -0.011695 0)
(-0.0289136 -0.0116896 0)
(-0.0265323 -0.0116004 0)
(-0.0241693 -0.0114261 0)
(-0.0218406 -0.0111661 0)
(-0.0195624 -0.0108206 0)
(-0.0173506 -0.0103906 0)
(-0.0152208 -0.0098784 0)
(-0.013188 -0.00928725 0)
(-0.0112667 -0.00862194 0)
(-0.00947023 -0.00788888 0)
(-0.00781078 -0.00709633 0)
(-0.00629916 -0.00625485 0)
(-0.0049444 -0.00537754 0)
(-0.00375352 -0.00448059 0)
(-0.00273115 -0.00358377 0)
(-0.00187909 -0.00271096 0)
(-0.00119575 -0.00189079 0)
(-0.000675359 -0.00115719 0)
(-0.000306254 -0.000549879 0)
(-7.08885e-05 -0.000114325 0)
(-9.36096e-05 0.000238572 0)
(-0.00040037 0.000914632 0)
(-0.00086866 0.00175355 0)
(-0.00151374 0.00270825 0)
(-0.00234408 0.00373733 0)
(-0.0033618 0.0048053 0)
(-0.00456491 0.00588222 0)
(-0.00594827 0.00694317 0)
(-0.00750425 0.00796775 0)
(-0.0092232 0.00893941 0)
(-0.0110938 0.00984498 0)
(-0.0131032 0.0106741 0)
(-0.0152377 0.011419 0)
(-0.0174824 0.0120739 0)
(-0.0198219 0.0126345 0)
(-0.0222402 0.0130985 0)
(-0.024721 0.0134645 0)
(-0.0272478 0.0137321 0)
(-0.0298042 0.0139021 0)
(-0.0323736 0.0139756 0)
(-0.03494 0.0139547 0)
(-0.0374874 0.0138418 0)
(-0.0400003 0.0136399 0)
(-0.0424638 0.0133522 0)
(-0.0448634 0.0129823 0)
(-0.0471852 0.012534 0)
(-0.049416 0.0120114 0)
(-0.0515433 0.0114187 0)
(-0.0535552 0.0107603 0)
(-0.0554408 0.0100407 0)
(-0.0571897 0.00926454 0)
(-0.0587925 0.00843661 0)
(-0.0602406 0.00756175 0)
(-0.0615263 0.00664489 0)
(-0.0626427 0.00569105 0)
(-0.0635837 0.00470536 0)
(-0.0643444 0.00369299 0)
(-0.0649205 0.00265923 0)
(-0.0653088 0.00160943 0)
(-0.065507 0.000549016 0)
(-0.0655138 -0.000516508 0)
(-0.0653289 -0.00158156 0)
(-0.0649528 -0.00264051 0)
(-0.0643872 -0.00368763 0)
(-0.0636346 -0.00471718 0)
(-0.0626988 -0.00572336 0)
(-0.0615842 -0.00670034 0)
(-0.0602965 -0.00764228 0)
(-0.0588423 -0.00854337 0)
(-0.0572293 -0.00939779 0)
(-0.055466 -0.0101998 0)
(-0.0535619 -0.0109438 0)
(-0.0515277 -0.0116242 0)
(-0.0493747 -0.0122356 0)
(-0.0471152 -0.0127729 0)
(-0.0447625 -0.0132312 0)
(-0.0423303 -0.0136058 0)
(-0.0398335 -0.0138924 0)
(-0.0372873 -0.0140871 0)
(-0.0347077 -0.0141866 0)
(-0.032111 -0.014188 0)
(-0.0295141 -0.0140892 0)
(-0.0269341 -0.0138885 0)
(-0.0243881 -0.0135854 0)
(-0.0218934 -0.0131802 0)
(-0.019467 -0.0126741 0)
(-0.0171257 -0.0120698 0)
(-0.0148857 -0.0113713 0)
(-0.0127625 -0.0105841 0)
(-0.0107707 -0.00971565 0)
(-0.00892369 -0.00877548 0)
(-0.00723361 -0.0077756 0)
(-0.00571084 -0.00673078 0)
(-0.00436385 -0.00565906 0)
(-0.00319885 -0.00458219 0)
(-0.00221935 -0.00352611 0)
(-0.00142553 -0.0025215 0)
(-0.000813409 -0.00160418 0)
(-0.000372752 -0.000815415 0)
(-8.68182e-05 -0.000201653 0)
(-0.000109779 0.000350634 0)
(-0.000467808 0.00124684 0)
(-0.00100876 0.00230207 0)
(-0.00174706 0.00346897 0)
(-0.00268961 0.00470532 0)
(-0.00383656 0.00597442 0)
(-0.0051839 0.00724493 0)
(-0.00672456 0.00849048 0)
(-0.00844913 0.00968917 0)
(-0.0103463 0.0108231 0)
(-0.0124033 0.0118779 0)
(-0.014606 0.0128421 0)
(-0.0169392 0.0137071 0)
(-0.019387 0.0144662 0)
(-0.0219328 0.0151148 0)
(-0.0245595 0.0156501 0)
(-0.0272498 0.0160704 0)
(-0.0299861 0.0163755 0)
(-0.032751 0.0165658 0)
(-0.0355271 0.0166431 0)
(-0.0382973 0.0166094 0)
(-0.0410447 0.0164676 0)
(-0.043753 0.0162211 0)
(-0.0464062 0.0158736 0)
(-0.0489892 0.0154294 0)
(-0.0514873 0.0148929 0)
(-0.0538863 0.0142688 0)
(-0.0561732 0.013562 0)
(-0.0583354 0.0127779 0)
(-0.0603612 0.0119215 0)
(-0.0622397 0.0109985 0)
(-0.063961 0.0100144 0)
(-0.065516 0.00897496 0)
(-0.0668965 0.00788595 0)
(-0.0680951 0.00675332 0)
(-0.0691056 0.0055831 0)
(-0.0699225 0.00438143 0)
(-0.0705415 0.00315453 0)
(-0.070959 0.00190872 0)
(-0.0711728 0.000650413 0)
(-0.0711813 -0.000613899 0)
(-0.0709842 -0.00187763 0)
(-0.0705821 -0.00313412 0)
(-0.0699768 -0.00437665 0)
(-0.0691709 -0.00559842 0)
(-0.0681683 -0.0067926 0)
(-0.0669738 -0.00795232 0)
(-0.0655933 -0.00907071 0)
(-0.0640339 -0.0101409 0)
(-0.0623036 -0.0111561 0)
(-0.0604114 -0.0121095 0)
(-0.0583675 -0.0129946 0)
(-0.0561829 -0.0138047 0)
(-0.0538697 -0.0145336 0)
(-0.0514409 -0.0151752 0)
(-0.0489105 -0.0157238 0)
(-0.0462931 -0.0161739 0)
(-0.0436043 -0.0165206 0)
(-0.0408603 -0.0167592 0)
(-0.038078 -0.0168859 0)
(-0.0352746 -0.0168973 0)
(-0.032468 -0.016791 0)
(-0.0296764 -0.0165651 0)
(-0.0269179 -0.016219 0)
(-0.0242108 -0.0157531 0)
(-0.0215734 -0.0151688 0)
(-0.0190234 -0.0144691 0)
(-0.0165783 -0.0136588 0)
(-0.0142547 -0.012744 0)
(-0.0120686 -0.0117333 0)
(-0.0100346 -0.0106372 0)
(-0.00816623 -0.0094693 0)
(-0.00647535 -0.00824577 0)
(-0.00497204 -0.00698634 0)
(-0.00366421 -0.0057145 0)
(-0.00255721 -0.00445797 0)
(-0.0016531 -0.00324911 0)
(-0.000949716 -0.00212521 0)
(-0.000438204 -0.00112862 0)
(-0.000102479 -0.000306299 0)
(-0.000125557 0.000480077 0)
(-0.000533696 0.00162704 0)
(-0.00114603 0.00292526 0)
(-0.00197633 0.00432745 0)
(-0.00303001 0.00579095 0)
(-0.00430526 0.00727824 0)
(-0.00579603 0.00875691 0)
(-0.00749323 0.0101994 0)
(-0.00938557 0.0115827 0)
(-0.01146 0.0128878 0)
(-0.0137022 0.014099 0)
(-0.0160966 0.0152043 0)
(-0.0186266 0.0161938 0)
(-0.0212751 0.0170607 0)
(-0.0240244 0.0177996 0)
(-0.0268561 0.0184074 0)
(-0.0297521 0.0188824 0)
(-0.0326936 0.019224 0)
(-0.0356624 0.0194332 0)
(-0.03864 0.0195114 0)
(-0.0416085 0.0194614 0)
(-0.0445502 0.0192863 0)
(-0.0474479 0.01899 0)
(-0.0502849 0.0185768 0)
(-0.0530452 0.0180515 0)
(-0.0557133 0.0174192 0)
(-0.0582746 0.0166854 0)
(-0.0607151 0.0158558 0)
(-0.0630218 0.0149364 0)
(-0.0651825 0.0139332 0)
(-0.0671856 0.0128527 0)
(-0.0690208 0.0117013 0)
(-0.0706785 0.0104857 0)
(-0.07215 0.00921255 0)
(-0.0734277 0.00788879 0)
(-0.074505 0.00652141 0)
(-0.0753762 0.00511753 0)
(-0.0760366 0.00368438 0)
(-0.0764828 0.00222928 0)
(-0.076712 0.00075969 0)
(-0.0767228 -0.000716859 0)
(-0.0765148 -0.00219273 0)
(-0.0760886 -0.00366019 0)
(-0.0754461 -0.00511143 0)
(-0.07459 -0.00653859 0)
(-0.0735243 -0.00793374 0)
(-0.0722541 -0.00928892 0)
(-0.0707856 -0.0105962 0)
(-0.069126 -0.0118475 0)
(-0.0672838 -0.0130351 0)
(-0.0652685 -0.0141511 0)
(-0.0630907 -0.0151878 0)
(-0.0607619 -0.0161377 0)
(-0.0582948 -0.0169935 0)
(-0.0557031 -0.0177481 0)
(-0.0530013 -0.018395 0)
(-0.0502048 -0.0189279 0)
(-0.04733 -0.0193409 0)
(-0.0443939 -0.019629 0)
(-0.0414142 -0.0197875 0)
(-0.0384092 -0.0198126 0)
(-0.0353976 -0.0197014 0)
(-0.0323984 -0.019452 0)
(-0.029431 -0.0190635 0)
(-0.0265147 -0.0185363 0)
(-0.0236687 -0.0178722 0)
(-0.0209121 -0.0170745 0)
(-0.0182634 -0.0161484 0)
(-0.0157407 -0.0151009 0)
(-0.0133609 -0.0139413 0)
(-0.0111404 -0.0126815 0)
(-0.00909395 -0.0113361 0)
(-0.00723508 -0.00992267 0)
(-0.00557557 -0.00846252 0)
(-0.00412515 -0.00698064 0)
(-0.00289108 -0.00550625 0)
(-0.00187737 -0.00407308 0)
(-0.00108362 -0.00271955 0)
(-0.000502301 -0.00148876 0)
(-0.000117795 -0.00042786 0)
(-0.000140919 0.000626419 0)
(-0.000597918 0.00205422 0)
(-0.00128019 0.00362188 0)
(-0.00220102 0.00528244 0)
(-0.00336444 0.00699307 0)
(-0.00476675 0.00871572 0)
(-0.00639982 0.0104172 0)
(-0.00825253 0.0120692 0)
(-0.0103117 0.0136475 0)
(-0.0125623 0.0151323 0)
(-0.0149886 0.0165072 0)
(-0.0175732 0.017759 0)
(-0.0202984 0.0188775 0)
(-0.0231457 0.0198551 0)
(-0.026096 0.0206862 0)
(-0.0291302 0.0213674 0)
(-0.0322287 0.0218968 0)
(-0.035372 0.022274 0)
(-0.0385409 0.0224998 0)
(-0.0417159 0.0225762 0)
(-0.0448784 0.0225061 0)
(-0.0480097 0.0222931 0)
(-0.051092 0.0219416 0)
(-0.0541077 0.0214565 0)
(-0.0570402 0.0208433 0)
(-0.0598733 0.0201077 0)
(-0.0625918 0.0192561 0)
(-0.0651812 0.0182948 0)
(-0.0676278 0.0172308 0)
(-0.0699188 0.0160711 0)
(-0.0720423 0.0148228 0)
(-0.0739875 0.0134934 0)
(-0.0757443 0.0120904 0)
(-0.0773039 0.0106217 0)
(-0.0786582 0.00909494 0)
(-0.0798002 0.00751829 0)
(-0.0807241 0.00589986 0)
(-0.0814251 0.00424791 0)
(-0.0818994 0.00257084 0)
(-0.0821442 0.000877171 0)
(-0.082158 -0.000824478 0)
(-0.0819404 -0.00252536 0)
(-0.081492 -0.00421664 0)
(-0.0808145 -0.00588939 0)
(-0.079911 -0.0075346 0)
(-0.0787856 -0.00914321 0)
(-0.0774434 -0.0107061 0)
(-0.0758909 -0.0122142 0)
(-0.0741357 -0.0136585 0)
(-0.0721864 -0.0150298 0)
(-0.070053 -0.0163192 0)
(-0.0677464 -0.017518 0)
(-0.0652787 -0.0186176 0)
(-0.062663 -0.0196096 0)
(-0.0599136 -0.0204861 0)
(-0.0570456 -0.0212394 0)
(-0.0540752 -0.0218624 0)
(-0.0510193 -0.0223485 0)
(-0.0478957 -0.0226917 0)
(-0.0447229 -0.0228869 0)
(-0.0415201 -0.0229298 0)
(-0.038307 -0.0228169 0)
(-0.0351034 -0.0225461 0)
(-0.0319297 -0.0221163 0)
(-0.0288064 -0.0215279 0)
(-0.0257537 -0.0207828 0)
(-0.0227919 -0.0198847 0)
(-0.0199407 -0.0188392 0)
(-0.0172194 -0.0176541 0)
(-0.0146465 -0.0163395 0)
(-0.0122397 -0.0149081 0)
(-0.0100154 -0.0133758 0)
(-0.00798871 -0.0117614 0)
(-0.00617329 -0.0100874 0)
(-0.00458076 -0.00838021 0)
(-0.00322031 -0.0066703 0)
(-0.0020979 -0.00499253 0)
(-0.0012149 -0.00338622 0)
(-0.00056495 -0.00189496 0)
(-0.000132744 -0.000565907 0)
(-0.000155871 0.000789182 0)
(-0.000660499 0.00252729 0)
(-0.00141124 0.00439057 0)
(-0.00242105 0.0063325 0)
(-0.00369271 0.00831029 0)
(-0.00522067 0.0102856 0)
(-0.00699477 0.0122247 0)
(-0.00900183 0.0140986 0)
(-0.0112266 0.0158825 0)
(-0.0136525 0.0175557 0)
(-0.0162616 0.019101 0)
(-0.0190353 0.0205048 0)
(-0.0219542 0.0217564 0)
(-0.0249986 0.0228475 0)
(-0.0281482 0.0237725 0)
(-0.0313826 0.0245276 0)
(-0.0346813 0.0251109 0)
(-0.0380237 0.0255221 0)
(-0.0413895 0.0257623 0)
(-0.0447587 0.0258336 0)
(-0.0481115 0.0257393 0)
(-0.0514287 0.0254836 0)
(-0.0546916 0.0250714 0)
(-0.057882 0.0245082 0)
(-0.0609826 0.0238002 0)
(-0.0639766 0.0229539 0)
(-0.0668482 0.0219763 0)
(-0.0695824 0.0208749 0)
(-0.0721649 0.0196572 0)
(-0.0745825 0.0183313 0)
(-0.0768231 0.0169052 0)
(-0.0788751 0.0153873 0)
(-0.0807283 0.0137863 0)
(-0.0823734 0.0121108 0)
(-0.0838022 0.0103697 0)
(-0.0850074 0.00857218 0)
(-0.0859829 0.00672734 0)
(-0.0867238 0.00484456 0)
(-0.0872259 0.00293335 0)
(-0.0874867 0.00100331 0)
(-0.0875043 -0.000935789 0)
(-0.0872784 -0.00287407 0)
(-0.0868094 -0.00480154 0)
(-0.0860993 -0.00670811 0)
(-0.0851511 -0.0085836 0)
(-0.0839689 -0.0104178 0)