/*--------------------------------*- C++ -*----------------------------------*\
| =========                 |                                                 |
| \\      /  F ield         | OpenFOAM: The Open Source CFD Toolbox           |
|  \\    /   O peration     | Version:  4.1                                   |
|   \\  /    A nd           | Web:      www.OpenFOAM.org                      |
|    \\/     M anipulation  |                                                 |
\*---------------------------------------------------------------------------*/
FoamFile
{
    version     2.0;
    format      ascii;
    class       volScalarField;
    location    "0.00018";
    object      p;
}
// * * * * * * * * * * * * * * * * * * * * * * * * * * * * * * * * * * * * * //

dimensions      [1 -1 -2 0 0 0 0];

internalField   nonuniform List<scalar> 
1681
(
100000
100000
100000
100000
100001
100001
100001
100002
100002
100003
100003
100004
100005
100005
100006
100007
100008
100008
100009
100010
100011
100012
100013
100014
100014
100015
100016
100017
100018
100018
100019
100020
100020
100021
100021
100022
100022
100022
100022
100022
100023
99999.9
100000
100000
100000
100001
100001
100001
100002
100002
100003
100003
100004
100005
100005
100006
100007
100008
100008
100009
100010
100011
100012
100013
100014
100014
100015
100016
100017
100018
100018
100019
100020
100020
100021
100021
100022
100022
100022
100022
100023
100023
99999.8
99999.9
100000
100000
100000
100001
100001
100001
100002
100003
100003
100004
100004
100005
100006
100007
100008
100008
100009
100010
100011
100012
100013
100014
100015
100015
100016
100017
100018
100018
100019
100020
100020
100021
100021
100022
100022
100022
100023
100023
100023
99999.7
99999.7
99999.8
100000
100000
100001
100001
100001
100002
100002
100003
100004
100004
100005
100006
100007
100007
100008
100009
100010
100011
100012
100013
100014
100015
100015
100016
100017
100018
100019
100019
100020
100020
100021
100022
100022
100022
100023
100023
100023
100023
99999.4
99999.4
99999.5
99999.7
99999.9
100000
100001
100001
100002
100002
100003
100003
100004
100005
100006
100006
100007
100008
100009
100010
100011
100012
100013
100014
100015
100016
100016
100017
100018
100019
100019
100020
100021
100021
100022
100022
100023
100023
100023
100023
100023
99999.1
99999.1
99999.2
99999.4
99999.6
99999.9
100000
100001
100001
100002
100002
100003
100004
100005
100006
100006
100007
100008
100009
100010
100011
100012
100013
100014
100015
100016
100017
100017
100018
100019
100020
100020
100021
100022
100022
100023
100023
100023
100023
100024
100024
99998.6
99998.6
99998.7
99998.9
99999.2
99999.5
99999.9
100000
100001
100002
100002
100003
100004
100004
100005
100006
100007
100008
100009
100010
100011
100012
100013
100014
100015
100016
100017
100018
100018
100019
100020
100021
100021
100022
100022
100023
100023
100024
100024
100024
100024
99998.1
99998.1
99998.2
99998.4
99998.7
99999.1
99999.5
100000
100001
100001
100002
100003
100003
100004
100005
100006
100007
100008
100009
100010
100011
100012
100013
100014
100015
100016
100017
100018
100019
100020
100020
100021
100022
100022
100023
100023
100024
100024
100024
100025
100025
99997.4
99997.5
99997.6
99997.8
99998.1
99998.5
99998.9
99999.5
100000
100001
100001
100002
100003
100004
100005
100006
100007
100008
100009
100010
100011
100012
100013
100014
100015
100016
100017
100018
100019
100020
100021
100022
100022
100023
100023
100024
100024
100025
100025
100025
100025
99996.6
99996.8
99996.9
99997.2
99997.5
99997.9
99998.3
99998.9
99999.5
100000
100001
100002
100003
100003
100004
100005
100006
100008
100009
100010
100011
100012
100013
100014
100015
100016
100017
100018
100019
100020
100021
100022
100023
100024
100024
100025
100025
100025
100026
100026
100026
99995.9
99996
99996.2
99996.4
99996.8
99997.2
99997.7
99998.2
99998.9
99999.6
100000
100001
100002
100003
100004
100005
100006
100007
100008
100010
100011
100012
100013
100014
100016
100017
100018
100019
100020
100021
100022
100023
100023
100024
100025
100025
100026
100026
100027
100027
100027
99995.3
99995.2
99995.4
99995.6
99996
99996.4
99996.9
99997.5
99998.2
99998.9
99999.7
100001
100002
100003
100004
100005
100006
100007
100008
100010
100011
100012
100013
100015
100016
100017
100018
100019
100020
100021
100022
100023
100024
100025
100026
100026
100027
100027
100027
100028
100028
99994.3
99994.3
99994.4
99994.7
99995.1
99995.5
99996.1
99996.7
99997.4
99998.2
99999
100000
100001
100002
100003
100004
100006
100007
100008
100009
100011
100012
100013
100015
100016
100017
100019
100020
100021
100022
100023
100024
100025
100026
100027
100027
100028
100028
100028
100029
100029
99993.1
99993.2
99993.4
99993.7
99994.1
99994.5
99995.1
99995.8
99996.5
99997.4
99998.3
99999.3
100000
100001
100003
100004
100005
100006
100008
100009
100011
100012
100013
100015
100016
100018
100019
100020
100022
100023
100024
100025
100026
100027
100027
100028
100029
100029
100030
100030
100030
99991.7
99991.9
99992.2
99992.5
99993
99993.5
99994.1
99994.8
99995.6
99996.5
99997.4
99998.5
99999.6
100001
100002
100003
100005
100006
100008
100009
100011
100012
100014
100015
100017
100018
100019
100021
100022
100023
100025
100026
100027
100028
100029
100029
100030
100030
100031
100031
100031
99990.4
99990.6
99990.9
99991.3
99991.8
99992.3
99993
99993.7
99994.6
99995.5
99996.5
99997.6
99998.8
100000
100001
100003
100004
100006
100007
100009
100010
100012
100014
100015
100017
100018
100020
100021
100023
100024
100026
100027
100028
100029
100030
100031
100031
100032
100032
100032
100033
99989.2
99989.3
99989.6
99990
99990.5
99991.1
99991.7
99992.5
99993.4
99994.4
99995.5
99996.7
99998
99999.3
100001
100002
100004
100005
100007
100009
100010
100012
100014
100015
100017
100019
100021
100022
100024
100025
100027
100028
100029
100030
100031
100032
100033
100033
100034
100034
100034
99987.8
99987.9
99988.2
99988.6
99989.1
99989.7
99990.4
99991.3
99992.2
99993.3
99994.4
99995.7
99997
99998.4
99999.9
100002
100003
100005
100007
100008
100010
100012
100014
100016
100018
100019
100021
100023
100025
100026
100028
100029
100030
100032
100033
100034
100034
100035
100035
100036
100036
99986.2
99986.3
99986.6
99987
99987.6
99988.2
99989
99989.9
99990.9
99992
99993.2
99994.6
99996
99997.5
99999.1
100001
100003
100004
100006
100008
100010
100012
100014
100016
100018
100020
100022
100024
100025
100027
100029
100030
100032
100033
100034
100035
100036
100037
100037
100038
100038
99984.5
99984.7
99984.9
99985.4
99985.9
99986.6
99987.4
99988.4
99989.4
99990.6
99991.9
99993.3
99994.9
99996.5
99998.2
100000
100002
100004
100006
100008
100010
100012
100014
100016
100018
100020
100022
100025
100026
100028
100030
100032
100033
100035
100036
100037
100038
100039
100039
100040
100040
99982.7
99982.8
99983.1
99983.6
99984.1
99984.9
99985.7
99986.8
99987.9
99989.1
99990.5
99992
99993.6
99995.3
99997.2
99999.1
100001
100003
100005
100007
100010
100012
100014
100016
100019
100021
100023
100025
100028
100030
100031
100033
100035
100036
100038
100039
100040
100041
100042
100042
100042
99980.7
99980.8
99981.1
99981.6
99982.2
99983
99983.9
99985
99986.2
99987.5
99989
99990.6
99992.3
99994.1
99996
99998.1
100000
100002
100005
100007
100009
100012
100014
100017
100019
100022
100024
100026
100029
100031
100033
100035
100037
100038
100040
100041
100042
100043
100044
100044
100045
99978.5
99978.7
99979
99979.5
99980.2
99981
99982
99983.1
99984.4
99985.8
99987.4
99989
99990.9
99992.8
99994.8
99997
99999.2
100002
100004
100007
100009
100012
100014
100017
100020
100022
100025
100027
100030
100032
100035
100037
100039
100041
100042
100044
100045
100046
100047
100047
100047
99976.2
99976.3
99976.7
99977.2
99977.9
99978.8
99979.8
99981
99982.4
99983.9
99985.6
99987.4
99989.3
99991.3
99993.5
99995.8
99998.2
100001
100003
100006
100009
100012
100014
100017
100020
100023
100026
100029
100031
100034
100036
100039
100041
100043
100045
100046
100048
100049
100050
100050
100050
99973.6
99973.8
99974.2
99974.8
99975.5
99976.5
99977.6
99978.8
99980.3
99981.9
99983.6
99985.5
99987.6
99989.8
99992.1
99994.5
99997.1
99999.7
100003
100005
100008
100011
100014
100018
100021
100024
100027
100030
100033
100036
100038
100041
100043
100045
100047
100049
100051
100052
100053
100053
100054
99970.9
99971.1
99971.5
99972.1
99972.9
99973.9
99975.1
99976.5
99978
99979.7
99981.6
99983.6
99985.7
99988.1
99990.5
99993.1
99995.8
99998.6
100002
100005
100008
100011
100014
100018
100021
100025
100028
100031
100034
100037
100040
100043
100046
100048
100050
100052
100054
100055
100056
100057
100057
99968
99968.2
99968.7
99969.3
99970.2
99971.2
99972.5
99973.9
99975.6
99977.4
99979.3
99981.5
99983.8
99986.2
99988.8
99991.5
99994.4
99997.4
100001
100004
100007
100011
100014
100018
100022
100025
100029
100033
100036
100039
100043
100046
100049
100051
100054
100056
100058
100059
100060
100061
100061
99964.9
99965.1
99965.6
99966.3
99967.2
99968.3
99969.7
99971.2
99973
99974.9
99977
99979.2
99981.6
99984.2
99986.9
99989.8
99992.9
99996.1
99999.4
100003
100007
100010
100014
100018
100022
100026
100030
100034
100038
100042
100045
100048
100052
100054
100057
100059
100061
100063
100064
100065
100066
99961.5
99961.7
99962.2
99963
99964
99965.2
99966.7
99968.3
99970.2
99972.2
99974.4
99976.8
99979.3
99982
99984.9
99988
99991.2
99994.6
99998.1
100002
100006
100010
100014
100018
100023
100027
100031
100036
100040
100044
100048
100051
100055
100058
100061
100064
100066
100068
100069
100070
100071
99957.8
99958.1
99958.7
99959.5
99960.6
99961.9
99963.5
99965.2
99967.2
99969.3
99971.7
99974.2
99976.9
99979.7
99982.7
99985.9
99989.3
99992.9
99996.7
100001
100005
100009
100014
100018
100023
100028
100033
100037
100042
100046
100050
100055
100058
100062
100065
100068
100070
100073
100074
100075
100076
99953.8
99954.2
99954.8
99955.7
99956.9
99958.4
99960.1
99962
99964
99966.3
99968.8
99971.4
99974.2
99977.2
99980.4
99983.7
99987.2
99991
99995
99999.2
100004
100008
100013
100018
100024
100029
100034
100039
100044
100049
100054
100058
100062
100066
100069
100073
100075
100078
100080
100081
100082
99949.6
99949.9
99950.7
99951.7
99953.1
99954.6
99956.5
99958.5
99960.7
99963.1
99965.7
99968.5
99971.5
99974.6
99977.8
99981.3
99984.9
99988.8
99993
99997.5
100002
100008
100013
100018
100024
100030
100035
100041
100046
100052
100057
100062
100066
100070
100074
100078
100081
100084
100086
100088
100089
99944.9
99945.3
99946.2
99947.4
99948.9
99950.7
99952.6
99954.8
99957.1
99959.7
99962.4
99965.4
99968.5
99971.8
99975.1
99978.6
99982.3
99986.3
99990.7
99995.5
100001
100006
100012
100018
100024
100030
100037
100043
100049
100055
100060
100066
100071
100075
100079
100083
100087
100090
100093
100095
100096
99939.8
99940.3
99941.4
99942.8
99944.5
99946.5
99948.6
99950.9
99953.4
99956.1
99959
99962.1
99965.5
99968.9
99972.3
99975.8
99979.4
99983.4
99987.9
99993
99998.8
100005
100011
100018
100025
100031
100038
100045
100051
100058
100064
100070
100075
100080
100085
100089
100093
100097
100101
100103
100105
99934.1
99934.9
99936.2
99937.9
99939.9
99942.1
99944.5
99946.9
99949.5
99952.3
99955.3
99958.7
99962.3
99966
99969.4
99972.8
99976.2
99980.1
99984.6
99990
99996.3
100003
100010
100018
100025
100032
100039
100047
100054
100062
100069
100075
100080
100085
100090
100095
100100
100105
100109
100113
100115
99927.8
99928.8
99930.5
99932.7
99935.2
99937.7
99940.2
99942.8
99945.4
99948.2
99951.3
99955
99959.2
99963.2
99966.7
99969.7
99972.6
99976
99980.3
99986.2
99993.3
100001
100009
100017
100025
100032
100040
100049
100057
100066
100074
100081
100086
100091
100095
100100
100106
100113
100119
100124
100127
99920.4
99921.9
99924.4
99927.3
99930.3
99933.2
99935.9
99938.5
99941
99943.7
99946.9
99950.8
99956.2
99961
99964.3
99966.6
99968.6
99971
99974.7
99981.1
99989.5
99998.8
100008
100018
100025
100033
100041
100050
100061
100071
100080
100087
100092
100096
100101
100105
100112
100121
100130
100138
100142
99911.6
99914.1
99917.8
99921.7
99925.5
99928.9
99931.8
99934.3
99936.6
99938.8
99941.6
99945.7
99953.6
99959.9
99962.8
99963.8
99964.1
99964.7
99966.9
99974.2
99984.7
99996.1
100008
100019
100026
100032
100041
100052
100064
100076
100088
100096
100100
100102
100105
100109
100115
100128
100143
100155
100160
99900.4
99905.1
99910.8
99916.3
99921.1
99925
99928.1
99930.4
99932
99933.2
99934.9
99938
99952.1
99961.6
99963.2
99961.8
99959
99956.3
99954.9
99964.1
99978.6
99993.3
100008
100022
100029
100029
100038
100052
100067
100083
100099
100108
100109
100108
100108
100109
100114
100133
100159
100177
100185
99884.9
99894.7
99903.9
99911.5
99917.5
99922
99925.1
99927
99927.7
99927.1
99926.4
99925.9
99952.8
99967.6
99966.5
99961.1
99953.7
99946
99937.9
99951.7
99972.1
99990.8
100009
100029
100033
100024
100033
100051
100069
100089
100115
100123
100120
100114
100108
100105
100106
100134
100179
100206
100219
99859.8
99883.6
99898.3
99908.4
99915.4
99920.3
99923.4
99924.8
99924
99919.8
99911.7
99891.9
99970.2
99986.8
99976
99962.3
99947.1
99928.2
99893.8
99927.4
99965
99991.3
100018
100057
100042
99997.4
100019
100048
100073
100103
100154
100151
100135
100119
100105
100091
100067
100129
100223
100248
100267
)
;

boundaryField
{
    movingWall
    {
        type            zeroGradient;
    }
    fixedWalls
    {
        type            zeroGradient;
    }
    frontAndBack
    {
        type            empty;
    }
}


// ************************************************************************* //
