/*--------------------------------*- C++ -*----------------------------------*\
| =========                 |                                                 |
| \\      /  F ield         | OpenFOAM: The Open Source CFD Toolbox           |
|  \\    /   O peration     | Version:  4.1                                   |
|   \\  /    A nd           | Web:      www.OpenFOAM.org                      |
|    \\/     M anipulation  |                                                 |
\*---------------------------------------------------------------------------*/
FoamFile
{
    version     2.0;
    format      ascii;
    class       volScalarField;
    location    "0.002";
    object      p;
}
// * * * * * * * * * * * * * * * * * * * * * * * * * * * * * * * * * * * * * //

dimensions      [1 -1 -2 0 0 0 0];

internalField   nonuniform List<scalar> 
441
(
100000
99999.9
99999.7
100000
100000
99999.5
100000
100000
100000
100001
100001
100001
100001
100001
100000
100001
100000
100001
100000
100001
100000
100000
100000
100000
100000
100000
100000
100000
100000
100000
100000
100001
100000
100000
100000
100000
100000
100000
100001
100000
100001
100000
100000
99999.9
99999.9
99999.9
100000
99999.9
100000
100000
100000
100001
100001
100001
100001
100001
100001
100001
100001
100001
100001
100001
100001
100000
99999.9
99999.9
99999.9
99999.9
100000
100000
100000
100000
100000
100000
100000
100001
100001
100001
100001
100001
100001
100001
100001
100001
100000
99999.4
99999.6
99999.5
99999.6
99999.7
99999.8
100000
100000
100000
100000
100001
100001
100001
100001
100001
100001
100001
100001
100001
100001
99998.4
99999.2
99999
99999.3
99999.3
99999.5
99999.6
99999.8
100000
100000
100000
100001
100001
100001
100001
100001
100001
100001
100001
100002
100001
99997.9
99998.3
99998.4
99998.6
99998.8
99999
99999.2
99999.5
99999.8
100000
100000
100001
100001
100001
100001
100002
100002
100002
100002
100002
100001
99997.7
99997.9
99997.9
99998.2
99998.3
99998.6
99998.9
99999.3
99999.6
100000
100000
100001
100001
100002
100002
100002
100002
100003
100002
100003
100002
99996.8
99996.9
99997
99997.3
99997.5
99997.9
99998.3
99998.8
99999.3
99999.9
100000
100001
100002
100002
100002
100003
100003
100003
100003
100004
100003
99996
99996.1
99996.2
99996.6
99996.8
99997.3
99997.8
99998.4
99999
99999.7
100000
100001
100002
100002
100003
100003
100004
100004
100004
100005
100004
99994.6
99994.7
99994.8
99995.3
99995.6
99996.3
99996.9
99997.8
99998.6
99999.5
100000
100001
100002
100003
100004
100005
100005
100006
100006
100006
100007
99993.5
99993.6
99993.8
99994.3
99994.7
99995.5
99996.2
99997.2
99998.2
99999.3
100000
100002
100003
100004
100005
100005
100006
100007
100007
100007
100007
99991.2
99991.5
99991.6
99992.4
99992.9
99994.1
99995
99996.3
99997.6
99999
100000
100002
100003
100005
100006
100007
100008
100008
100009
100009
100007
99990
99990.2
99990.4
99991.3
99991.8
99993.1
99994.1
99995.7
99997.1
99998.7
100000
100002
100004
100005
100007
100008
100009
100010
100010
100011
100010
99986.3
99986.9
99987.1
99988.6
99989.3
99991.2
99992.5
99994.5
99996.3
99998.3
100000
100002
100005
100006
100009
100010
100012
100013
100014
100014
100013
99984.9
99985.6
99985.6
99987.3
99988
99990.1
99991.5
99993.8
99995.8
99998
100000
100002
100005
100007
100010
100011
100014
100014
100016
100016
100014
99978.4
99980.3
99980.3
99983.5
99984.6
99987.8
99989.6
99992.6
99994.9
99997.6
100000
100003
100006
100008
100012
100013
100018
100018
100025
100021
100035
99977.2
99979.1
99978.8
99982.2
99983.3
99986.9
99988.8
99992
99994.5
99997.3
100000
100002
100006
100008
100012
100014
100019
100019
100026
100025
100033
99963
99970.7
99970.4
99977.5
99979.3
99984.5
99987
99991
99993.7
99996.9
99999.9
100003
100006
100009
100014
100016
100023
100024
100035
100035
100047
99961.9
99970
99969.4
99976.5
99978.5
99983.9
99986.6
99990.7
99993.5
99996.7
99999.8
100002
100006
100008
100013
100015
100022
100023
100033
100034
100049
99917
99959
99959.8
99973.6
99976.1
99983
99985.9
99990.4
99993.3
99996.6
99999.8
100002
100006
100009
100014
100016
100025
100027
100046
100051
100102
)
;

boundaryField
{
    movingWall
    {
        type            zeroGradient;
    }
    fixedWalls
    {
        type            zeroGradient;
    }
    frontAndBack
    {
        type            empty;
    }
}


// ************************************************************************* //
