/*--------------------------------*- C++ -*----------------------------------*\
| =========                 |                                                 |
| \\      /  F ield         | OpenFOAM: The Open Source CFD Toolbox           |
|  \\    /   O peration     | Version:  4.1                                   |
|   \\  /    A nd           | Web:      www.OpenFOAM.org                      |
|    \\/     M anipulation  |                                                 |
\*---------------------------------------------------------------------------*/
FoamFile
{
    version     2.0;
    format      ascii;
    class       volVectorField;
    location    "1.5";
    object      U;
}
// * * * * * * * * * * * * * * * * * * * * * * * * * * * * * * * * * * * * * //

dimensions      [0 1 -1 0 0 0 0];

internalField   nonuniform List<vector> 
400
(
(7.013e-05 -6.79886e-05 0)
(-0.00032031 0.000135299 0)
(-0.00145656 0.000286881 0)
(-0.00298337 0.000379095 0)
(-0.00472073 0.000405237 0)
(-0.006449 0.000393195 0)
(-0.00804892 0.000352796 0)
(-0.00941519 0.000293043 0)
(-0.0104728 0.000215489 0)
(-0.0111505 0.000120981 0)
(-0.0113864 1.01534e-05 0)
(-0.0111298 -0.000113374 0)
(-0.010353 -0.000242103 0)
(-0.00907185 -0.000362192 0)
(-0.0073555 -0.000455642 0)
(-0.00536227 -0.000496765 0)
(-0.00330598 -0.000466941 0)
(-0.0015229 -0.000339152 0)
(-0.000265351 -0.000142321 0)
(0.000101635 9.28678e-05 0)
(-0.000130852 0.000314133 0)
(-0.00164492 0.00160886 0)
(-0.00463514 0.00261676 0)
(-0.00838981 0.00320326 0)
(-0.0125375 0.0033745 0)
(-0.0166283 0.00324197 0)
(-0.0203852 0.00288219 0)
(-0.0235661 0.00235095 0)
(-0.0259922 0.00167491 0)
(-0.0275045 0.000871387 0)
(-0.0279717 -4.02763e-05 0)
(-0.0272961 -0.001024 0)
(-0.0254354 -0.00201746 0)
(-0.0224407 -0.00292352 0)
(-0.0184773 -0.00361467 0)
(-0.0138852 -0.00393727 0)
(-0.00911897 -0.0037598 0)
(-0.0048505 -0.0029822 0)
(-0.00159143 -0.00171425 0)
(-8.92398e-05 -0.000245014 0)
(-0.000309371 0.00148778 0)
(-0.002876 0.00464286 0)
(-0.00742999 0.00693043 0)
(-0.0129331 0.00820733 0)
(-0.0188891 0.00854059 0)
(-0.0247051 0.00814834 0)
(-0.0300106 0.00720215 0)
(-0.0344799 0.00582827 0)
(-0.03787 0.00409886 0)
(-0.0399676 0.0020652 0)
(-0.0405978 -0.000215513 0)
(-0.0396317 -0.0026499 0)
(-0.0370136 -0.00508595 0)
(-0.0328104 -0.00729643 0)
(-0.0272397 -0.00898635 0)
(-0.0207513 -0.00981322 0)
(-0.0139482 -0.00948 0)
(-0.00772975 -0.00779053 0)
(-0.00279114 -0.00492271 0)
(-0.000245518 -0.00136514 0)
(-0.000454286 0.00322062 0)
(-0.00390691 0.00881253 0)
(-0.00978102 0.0126342 0)
(-0.0167195 0.0146692 0)
(-0.0241229 0.0151204 0)
(-0.031294 0.0143463 0)
(-0.0378096 0.0126329 0)
(-0.0432958 0.010188 0)
(-0.0474732 0.00713611 0)
(-0.0500915 0.00356676 0)
(-0.0509397 -0.000420629 0)
(-0.0498518 -0.00466816 0)
(-0.0467398 -0.00892013 0)
(-0.0416539 -0.012795 0)
(-0.0348227 -0.015793 0)
(-0.0267641 -0.0173354 0)
(-0.018197 -0.0169077 0)
(-0.0102432 -0.0141712 0)
(-0.0037937 -0.00932963 0)
(-0.000358816 -0.00300876 0)
(-0.000562794 0.00544786 0)
(-0.00476704 0.0140239 0)
(-0.0118061 0.0196278 0)
(-0.0200152 0.0224829 0)
(-0.0286976 0.0230066 0)
(-0.0370672 0.021741 0)
(-0.0446704 0.01911 0)
(-0.0511069 0.0154115 0)
(-0.0560774 0.010823 0)
(-0.0593023 0.00546787 0)
(-0.0605291 -0.000518583 0)
(-0.0595363 -0.00691783 0)
(-0.0561697 -0.0133657 0)
(-0.0504193 -0.0193053 0)
(-0.042478 -0.0239883 0)
(-0.0329015 -0.0265312 0)
(-0.0225242 -0.026119 0)
(-0.0127442 -0.022193 0)
(-0.00471846 -0.0149432 0)
(-0.000435595 -0.0051272 0)
(-0.00066018 0.00807761 0)
(-0.00556502 0.0201328 0)
(-0.0137169 0.0277534 0)
(-0.0231498 0.0314896 0)
(-0.0330735 0.0320514 0)
(-0.0426225 0.0302142 0)
(-0.0513289 0.0265657 0)
(-0.0587827 0.0215 0)
(-0.0646768 0.015241 0)
(-0.0687065 0.0079297 0)
(-0.070569 -0.000283359 0)
(-0.0699619 -0.00913921 0)
(-0.0666209 -0.018175 0)
(-0.0604156 -0.0266453 0)
(-0.0514385 -0.033501 0)
(-0.0402374 -0.0374565 0)
(-0.0277606 -0.0372637 0)
(-0.0157686 -0.0320168 0)
(-0.00580623 -0.021845 0)
(-0.000515825 -0.00769689 0)
(-0.000760858 0.011115 0)
(-0.00639584 0.0271566 0)
(-0.0157095 0.0370407 0)
(-0.0264207 0.0417304 0)
(-0.0376457 0.04231 0)
(-0.0484489 0.0398447 0)
(-0.0583637 0.0351158 0)
(-0.0669885 0.0286182 0)
(-0.074024 0.0206104 0)
(-0.0791475 0.0112246 0)
(-0.0820003 0.00059062 0)
(-0.082173 -0.0110317 0)
(-0.0792397 -0.0231108 0)
(-0.0728701 -0.034713 0)
(-0.0629571 -0.0444314 0)
(-0.0499521 -0.0504436 0)
(-0.0348828 -0.0508586 0)
(-0.0199719 -0.0442084 0)
(-0.00734362 -0.0304641 0)
(-0.000634187 -0.0108692 0)
(-0.000879931 0.014594 0)
(-0.0073454 0.0351648 0)
(-0.0179536 0.0475709 0)
(-0.030069 0.0532853 0)
(-0.0427108 0.0538672 0)
(-0.0548849 0.0507358 0)
(-0.0661468 0.0449018 0)
(-0.0761289 0.0369658 0)
(-0.0845627 0.0272039 0)
(-0.0911263 0.0157026 0)
(-0.0954105 0.00251706 0)
(-0.0968815 -0.0121579 0)
(-0.0949002 -0.027785 0)
(-0.0888376 -0.0432757 0)
(-0.0782449 -0.0568201 0)
(-0.0633165 -0.0658933 0)
(-0.045047 -0.0676452 0)
(-0.0261908 -0.0596732 0)
(-0.00971683 -0.0415521 0)
(-0.000842421 -0.014945 0)
(-0.00103159 0.0186055 0)
(-0.00848987 0.0443177 0)
(-0.0205888 0.0595132 0)
(-0.0342741 0.0663035 0)
(-0.0484594 0.066856 0)
(-0.0621095 0.0630222 0)
(-0.0748295 0.0560877 0)
(-0.0863217 0.0467643 0)
(-0.0963834 0.0353275 0)
(-0.104728 0.0217723 0)
(-0.11092 0.00600817 0)
(-0.114306 -0.0119331 0)
(-0.113998 -0.0316196 0)
(-0.108967 -0.0518987 0)
(-0.098247 -0.07056 0)
(-0.0815261 -0.0842062 0)
(-0.0595216 -0.0885896 0)
(-0.0354636 -0.0797544 0)
(-0.0134562 -0.0563298 0)
(-0.00121771 -0.020469 0)
(-0.00123306 0.0232634 0)
(-0.00991313 0.0548049 0)
(-0.0237471 0.0730479 0)
(-0.0391728 0.080913 0)
(-0.054984 0.0813609 0)
(-0.0701334 0.0767702 0)
(-0.0843103 0.0687589 0)
(-0.0973333 0.0581581 0)
(-0.109111 0.0452262 0)
(-0.119444 0.0298183 0)
(-0.127921 0.0116136 0)
(-0.133808 -0.00964752 0)
(-0.135975 -0.0338051 0)
(-0.132935 -0.0598187 0)
(-0.123046 -0.0851785 0)
(-0.105172 -0.105513 0)
(-0.0793414 -0.114655 0)
(-0.0489138 -0.106156 0)
(-0.0192699 -0.0765565 0)
(-0.00188413 -0.0283153 0)
(-0.00151868 0.0287742 0)
(-0.0117299 0.0669198 0)
(-0.0275675 0.0884158 0)
(-0.044858 0.0972361 0)
(-0.0622565 0.0974017 0)
(-0.0787518 0.0919316 0)
(-0.094156 0.0828471 0)
(-0.108457 0.0711091 0)
(-0.121724 0.0569483 0)
(-0.133905 0.0400368 0)
(-0.14469 0.0197406 0)
(-0.15335 -0.00463412 0)
(-0.158603 -0.033411 0)
(-0.158552 -0.0659322 0)
(-0.150831 -0.0996427 0)
(-0.133209 -0.129286 0)
(-0.104487 -0.146337 0)
(-0.0673232 -0.140635 0)
(-0.0279981 -0.104522 0)
(-0.00303581 -0.0398223 0)
(-0.00193873 0.035343 0)
(-0.0141243 0.0808961 0)
(-0.0322442 0.105729 0)
(-0.0514127 0.115193 0)
(-0.0701248 0.114743 0)
(-0.0874954 0.108159 0)
(-0.103502 0.0979428 0)
(-0.118359 0.0851928 0)
(-0.132337 0.0701109 0)
(-0.145592 0.0521612 0)
(-0.158002 0.0303409 0)
(-0.168977 0.00340376 0)
(-0.177278 -0.0296652 0)
(-0.180822 -0.0689195 0)
(-0.176729 -0.112191 0)
(-0.161619 -0.153777 0)
(-0.132597 -0.18276 0)
(-0.0902542 -0.18413 0)
(-0.0404027 -0.142665 0)
(-0.00496307 -0.0568739 0)
(-0.00261844 0.043533 0)
(-0.0173875 0.0972876 0)
(-0.0379806 0.125247 0)
(-0.0587828 0.134647 0)
(-0.0781168 0.132935 0)
(-0.0953889 0.124758 0)
(-0.110786 0.113178 0)
(-0.124815 0.0994145 0)
(-0.137963 0.0836468 0)
(-0.150639 0.0651333 0)
(-0.162986 0.0425016 0)
(-0.174717 0.0139181 0)
(-0.184922 -0.0224431 0)
(-0.191752 -0.0676387 0)
(-0.192346 -0.120443 0)
(-0.182533 -0.175591 0)
(-0.157689 -0.220575 0)
(-0.114756 -0.23526 0)
(-0.0566087 -0.192623 0)
(-0.00806228 -0.0819344 0)
(-0.00374091 0.0536543 0)
(-0.0220726 0.11609 0)
(-0.0451519 0.146509 0)
(-0.0668627 0.154663 0)
(-0.0853884 0.150718 0)
(-0.10078 0.140245 0)
(-0.113513 0.126893 0)
(-0.124479 0.111962 0)
(-0.134387 0.0956033 0)
(-0.143916 0.0769102 0)
(-0.153515 0.0542222 0)
(-0.163339 0.0252197 0)
(-0.173105 -0.0126707 0)
(-0.181691 -0.0616234 0)
(-0.187036 -0.121862 0)
(-0.184978 -0.189791 0)
(-0.169948 -0.253177 0)
(-0.134189 -0.288404 0)
(-0.0750294 -0.253257 0)
(-0.01275 -0.117549 0)
(-0.00575566 0.0677666 0)
(-0.02883 0.138656 0)
(-0.0536612 0.169703 0)
(-0.0745208 0.174289 0)
(-0.0896006 0.166425 0)
(-0.10022 0.152502 0)
(-0.107252 0.13669 0)
(-0.112109 0.120228 0)
(-0.115714 0.103199 0)
(-0.118999 0.0845715 0)
(-0.122711 0.0625372 0)
(-0.127487 0.0345218 0)
(-0.133845 -0.00252421 0)
(-0.141742 -0.0517226 0)
(-0.15065 -0.114956 0)
(-0.157432 -0.191445 0)
(-0.157287 -0.271833 0)
(-0.138073 -0.333177 0)
(-0.0908142 -0.318569 0)
(-0.0191722 -0.165618 0)
(-0.00935414 0.0854036 0)
(-0.039362 0.162835 0)
(-0.0636371 0.191444 0)
(-0.0797891 0.189541 0)
(-0.0864631 0.176006 0)
(-0.0875771 0.157695 0)
(-0.0845471 0.139006 0)
(-0.0794687 0.120897 0)
(-0.0734084 0.103291 0)
(-0.0674746 0.0850775 0)
(-0.0625991 0.0644651 0)
(-0.0597868 0.0389281 0)
(-0.0602801 0.00535647 0)
(-0.0651127 -0.0398437 0)
(-0.0756483 -0.0999168 0)
(-0.0905427 -0.177314 0)
(-0.108017 -0.267913 0)
(-0.113524 -0.355379 0)
(-0.094796 -0.375161 0)
(-0.0264263 -0.224035 0)
(-0.0154841 0.115866 0)
(-0.0523522 0.192383 0)
(-0.0690512 0.211023 0)
(-0.0725582 0.196799 0)
(-0.062996 0.174852 0)
(-0.048303 0.151228 0)
(-0.0302476 0.129655 0)
(-0.0115445 0.110342 0)
(0.00682551 0.0927968 0)
(0.023779 0.0758029 0)
(0.0384237 0.0576788 0)
(0.0496468 0.0361989 0)
(0.0557988 0.00858601 0)
(0.0551164 -0.0286009 0)
(0.0445583 -0.0792293 0)
(0.0234586 -0.148207 0)
(-0.0112968 -0.237512 0)
(-0.0460066 -0.342824 0)
(-0.0723005 -0.405345 0)
(-0.0308503 -0.286807 0)
(-0.0255338 0.145695 0)
(-0.0678917 0.210208 0)
(-0.0562252 0.21053 0)
(-0.0310167 0.181832 0)
(0.00731591 0.152626 0)
(0.0455779 0.126187 0)
(0.0831764 0.104224 0)
(0.117635 0.0860008 0)
(0.148758 0.0704917 0)
(0.176013 0.0564504 0)
(0.198953 0.0424191 0)
(0.216731 0.0266812 0)
(0.227748 0.00711173 0)
(0.229959 -0.0189327 0)
(0.219369 -0.0549422 0)
(0.19354 -0.106219 0)
(0.144231 -0.179228 0)
(0.0809832 -0.282859 0)
(-0.00242671 -0.380338 0)
(-0.020523 -0.327395 0)
(-0.0179149 0.217812 0)
(-0.0175675 0.218289 0)
(0.0578409 0.181008 0)
(0.126148 0.135717 0)
(0.196465 0.102659 0)
(0.256158 0.0785304 0)
(0.308165 0.0607518 0)
(0.352037 0.0474845 0)
(0.389044 0.0371371 0)
(0.419763 0.0285332 0)
(0.444514 0.0205699 0)
(0.463016 0.0121748 0)
(0.47416 0.00206983 0)
(0.476066 -0.0112096 0)
(0.464978 -0.0300704 0)
(0.437277 -0.0581883 0)
(0.382185 -0.103508 0)
(0.300823 -0.183521 0)
(0.159816 -0.293733 0)
(0.0401538 -0.332627 0)
(0.212038 0.130644 0)
(0.299909 0.102145 0)
(0.454985 0.0679471 0)
(0.546484 0.0439125 0)
(0.618656 0.0280038 0)
(0.670522 0.0183889 0)
(0.709613 0.0123116 0)
(0.73926 0.0084469 0)
(0.762066 0.00585065 0)
(0.779565 0.00396995 0)
(0.7926 0.00240446 0)
(0.801356 0.000853455 0)
(0.80536 -0.00100223 0)
(0.803377 -0.0034407 0)
(0.793041 -0.00709038 0)
(0.770693 -0.0125693 0)
(0.727515 -0.0223201 0)
(0.654642 -0.040769 0)
(0.496001 -0.0747553 0)
(0.287917 -0.13664 0)
)
;

boundaryField
{
    movingWall
    {
        type            fixedValue;
        value           uniform (1 0 0);
    }
    fixedWalls
    {
        type            noSlip;
    }
    frontAndBack
    {
        type            empty;
    }
}


// ************************************************************************* //
