/*--------------------------------*- C++ -*----------------------------------*\
| =========                 |                                                 |
| \\      /  F ield         | OpenFOAM: The Open Source CFD Toolbox           |
|  \\    /   O peration     | Version:  4.1                                   |
|   \\  /    A nd           | Web:      www.OpenFOAM.org                      |
|    \\/     M anipulation  |                                                 |
\*---------------------------------------------------------------------------*/
FoamFile
{
    version     2.0;
    format      ascii;
    class       volVectorField;
    location    "0.135";
    object      U;
}
// * * * * * * * * * * * * * * * * * * * * * * * * * * * * * * * * * * * * * //

dimensions      [0 1 -1 0 0 0 0];

internalField   nonuniform List<vector> 
1600
(
(1.45936e-05 -1.61566e-05 0)
(1.26409e-05 3.46948e-05 0)
(-8.53802e-05 0.000127447 0)
(-0.000301476 0.000234756 0)
(-0.000638992 0.000340423 0)
(-0.00108875 0.000435195 0)
(-0.00163456 0.00051389 0)
(-0.00225644 0.000573878 0)
(-0.0029327 0.000614143 0)
(-0.00364135 0.000634717 0)
(-0.0043609 0.000636302 0)
(-0.00507101 0.000620038 0)
(-0.00575278 0.000587346 0)
(-0.00638903 0.000539824 0)
(-0.00696444 0.000479189 0)
(-0.00746564 0.000407232 0)
(-0.00788128 0.000325809 0)
(-0.00820207 0.000236823 0)
(-0.00842084 0.000142233 0)
(-0.0085326 4.40499e-05 0)
(-0.00853455 -5.56552e-05 0)
(-0.00842619 -0.000154751 0)
(-0.00820935 -0.000251048 0)
(-0.00788823 -0.00034231 0)
(-0.00746951 -0.000426268 0)
(-0.00696227 -0.00050065 0)
(-0.00637807 -0.000563217 0)
(-0.00573087 -0.000611815 0)
(-0.00503693 -0.000644432 0)
(-0.00431459 -0.000659284 0)
(-0.00358408 -0.000654908 0)
(-0.00286708 -0.000630291 0)
(-0.00218622 -0.000585039 0)
(-0.0015643 -0.000519606 0)
(-0.00102328 -0.000435638 0)
(-0.00058282 -0.000336493 0)
(-0.000258043 -0.000228088 0)
(-5.64151e-05 -0.000120277 0)
(2.76012e-05 -2.94378e-05 0)
(1.81648e-05 1.82957e-05 0)
(-3.86783e-05 -1.68165e-05 0)
(-0.000223316 0.000212667 0)
(-0.000651731 0.000598257 0)
(-0.00137093 0.00103718 0)
(-0.00238874 0.0014678 0)
(-0.00368398 0.00185368 0)
(-0.00521791 0.00217394 0)
(-0.00694145 0.00241773 0)
(-0.00880017 0.00258066 0)
(-0.0107379 0.00266262 0)
(-0.012699 0.00266631 0)
(-0.0146303 0.00259629 0)
(-0.0164818 0.00245831 0)
(-0.0182079 0.00225891 0)
(-0.0197676 0.00200516 0)
(-0.0211252 0.00170449 0)
(-0.02225 0.00136458 0)
(-0.0231172 0.000993353 0)
(-0.0237075 0.000598947 0)
(-0.0240078 0.000189721 0)
(-0.0240105 -0.000225728 0)
(-0.0237147 -0.000638567 0)
(-0.0231255 -0.00103974 0)
(-0.0222545 -0.00141999 0)
(-0.0211197 -0.00176999 0)
(-0.0197458 -0.00208036 0)
(-0.0181637 -0.00234192 0)
(-0.0164107 -0.00254582 0)
(-0.0145298 -0.00268383 0)
(-0.0125697 -0.00274868 0)
(-0.0105831 -0.00273441 0)
(-0.00862636 -0.00263696 0)
(-0.00675781 -0.00245482 0)
(-0.00503542 -0.00218994 0)
(-0.00351425 -0.00184915 0)
(-0.00224263 -0.00144612 0)
(-0.00125694 -0.00100457 0)
(-0.000574487 -0.000563331 0)
(-0.000182431 -0.000185209 0)
(-2.8559e-05 2.85364e-05 0)
(-0.000134493 7.78832e-05 0)
(-0.000619564 0.000634078 0)
(-0.00147496 0.00143706 0)
(-0.00275241 0.00232101 0)
(-0.00445802 0.00317953 0)
(-0.00656037 0.00394622 0)
(-0.00900387 0.00458142 0)
(-0.0117178 0.00506353 0)
(-0.0146229 0.00538323 0)
(-0.0176367 0.0055396 0)
(-0.0206769 0.00553742 0)
(-0.0236638 0.00538534 0)
(-0.0265227 0.00509465 0)
(-0.0291847 0.0046784 0)
(-0.0315877 0.00415084 0)
(-0.0336774 0.00352708 0)
(-0.0354076 0.00282285 0)
(-0.0367403 0.00205441 0)
(-0.0376464 0.00123851 0)
(-0.0381059 0.000392377 0)
(-0.0381078 -0.000466298 0)
(-0.0376507 -0.00131935 0)
(-0.0367426 -0.00214818 0)
(-0.0354014 -0.00293387 0)
(-0.0336548 -0.00365733 0)
(-0.0315403 -0.00429952 0)
(-0.0291048 -0.0048418 0)
(-0.0264046 -0.00526633 0)
(-0.0235047 -0.00555661 0)
(-0.0204777 -0.00569816 0)
(-0.0174027 -0.00567933 0)
(-0.0143631 -0.00549238 0)
(-0.0114451 -0.00513479 0)
(-0.00873364 -0.00461105 0)
(-0.00630886 -0.00393516 0)
(-0.00424061 -0.0031341 0)
(-0.00258143 -0.00225311 0)
(-0.00135762 -0.00136342 0)
(-0.000556279 -0.000574456 0)
(-0.000118257 -5.16045e-05 0)
(-0.00024894 0.000291931 0)
(-0.00108637 0.00135319 0)
(-0.00241648 0.00270846 0)
(-0.0042821 0.00414702 0)
(-0.00667952 0.00552495 0)
(-0.00956435 0.00674781 0)
(-0.0128652 0.00775678 0)
(-0.0164929 0.00851859 0)
(-0.0203483 0.00901813 0)
(-0.0243275 0.00925323 0)
(-0.0283269 0.00923082 0)
(-0.0322457 0.00896421 0)
(-0.035989 0.00847118 0)
(-0.039469 0.00777261 0)
(-0.0426067 0.00689153 0)
(-0.0453326 0.00585255 0)
(-0.0475875 0.00468143 0)
(-0.0493232 0.0034049 0)
(-0.0505023 0.00205053 0)
(-0.0510994 0.000646707 0)
(-0.0511004 -0.000777411 0)
(-0.0505039 -0.00219192 0)
(-0.0493203 -0.00356627 0)
(-0.0475727 -0.00486943 0)
(-0.0452966 -0.00607017 0)
(-0.0425399 -0.00713743 0)
(-0.0393626 -0.00804091 0)
(-0.0358364 -0.00875174 0)
(-0.0320438 -0.00924335 0)
(-0.0280768 -0.0094926 0)
(-0.0240353 -0.00948114 0)
(-0.0200249 -0.009197 0)
(-0.0161535 -0.00863672 0)
(-0.0125281 -0.00780801 0)
(-0.00924943 -0.00673323 0)
(-0.00640569 -0.00545411 0)
(-0.00406503 -0.00403826 0)
(-0.00226595 -0.00258815 0)
(-0.0010041 -0.0012535 0)
(-0.000227383 -0.000246912 0)
(-0.000369223 0.000634539 0)
(-0.00157598 0.002395 0)
(-0.00339813 0.00444649 0)
(-0.00586262 0.0065495 0)
(-0.00894971 0.00853191 0)
(-0.0125985 0.0102759 0)
(-0.0167205 0.0117057 0)
(-0.0212092 0.0127769 0)
(-0.0259473 0.013469 0)
(-0.0308132 0.0137787 0)
(-0.035685 0.0137154 0)
(-0.0404448 0.0132978 0)
(-0.0449811 0.012551 0)
(-0.049191 0.0115049 0)
(-0.0529815 0.0101928 0)
(-0.056271 0.00865028 0)
(-0.05899 0.00691487 0)
(-0.0610815 0.0050256 0)
(-0.0625019 0.0030228 0)
(-0.0632212 0.000947989 0)
(-0.0632231 -0.00115615 0)
(-0.0625059 -0.00324591 0)
(-0.0610819 -0.00527667 0)
(-0.0589784 -0.0072032 0)
(-0.056237 -0.00898003 0)
(-0.052914 -0.0105621 0)
(-0.0490797 -0.0119054 0)
(-0.0448183 -0.0129684 0)
(-0.0402261 -0.0137127 0)
(-0.0354111 -0.0141053 0)
(-0.0304901 -0.0141199 0)
(-0.0255866 -0.0137399 0)
(-0.0208274 -0.0129604 0)
(-0.0163382 -0.0117924 0)
(-0.0122381 -0.0102666 0)
(-0.00863349 -0.00843917 0)
(-0.00560943 -0.00639872 0)
(-0.00322065 -0.00427496 0)
(-0.00147779 -0.00224959 0)
(-0.000343065 -0.000567453 0)
(-0.000489176 0.00110621 0)
(-0.00206468 0.00376509 0)
(-0.00437913 0.00666188 0)
(-0.0074409 0.00954038 0)
(-0.0112105 0.0122092 0)
(-0.0156074 0.0145329 0)
(-0.0205244 0.016422 0)
(-0.025837 0.0178235 0)
(-0.0314107 0.0187124 0)
(-0.0371074 0.0190854 0)
(-0.0427896 0.0189553 0)
(-0.0483247 0.0183468 0)
(-0.0535874 0.0172936 0)
(-0.0584622 0.0158357 0)
(-0.062845 0.0140177 0)
(-0.0666443 0.0118878 0)
(-0.0697823 0.00949658 0)
(-0.0721953 0.00689699 0)
(-0.0738344 0.00414368 0)
(-0.074666 0.00129296 0)
(-0.0746721 -0.00159732 0)
(-0.0738503 -0.00446792 0)
(-0.0722147 -0.00725844 0)
(-0.0697953 -0.00990766 0)
(-0.0666387 -0.0123542 0)
(-0.0628075 -0.0145371 0)
(-0.0583803 -0.0163972 0)
(-0.0534508 -0.0178783 0)
(-0.048127 -0.018929 0)
(-0.0425295 -0.0195049 0)
(-0.0367896 -0.0195708 0)
(-0.0310463 -0.019104 0)
(-0.0254429 -0.0180977 0)
(-0.0201224 -0.0165651 0)
(-0.0152223 -0.0145443 0)
(-0.0108675 -0.0121043 0)
(-0.00716243 -0.00935171 0)
(-0.00418127 -0.00643861 0)
(-0.0019537 -0.00357089 0)
(-0.000459116 -0.00101465 0)
(-0.000606192 0.00170374 0)
(-0.00254223 0.00545983 0)
(-0.00534107 0.00935331 0)
(-0.00899214 0.0131197 0)
(-0.0134344 0.0165556 0)
(-0.0185654 0.0195139 0)
(-0.0242576 0.0218957 0)
(-0.0303675 0.023642 0)
(-0.0367436 0.0247259 0)
(-0.0432317 0.0251454 0)
(-0.0496803 0.0249181 0)
(-0.0559434 0.0240763 0)
(-0.0618841 0.022663 0)
(-0.0673765 0.0207298 0)
(-0.0723073 0.0183337 0)
(-0.0765772 0.0155366 0)
(-0.0801016 0.0124036 0)
(-0.0828115 0.00900274 0)
(-0.0846539 0.00540417 0)
(-0.0855924 0.00168034 0)
(-0.0856072 -0.00209443 0)
(-0.0846955 -0.00584404 0)
(-0.0828722 -0.00949089 0)
(-0.0801695 -0.0129564 0)
(-0.0766372 -0.0161617 0)
(-0.0723428 -0.0190287 0)
(-0.0673711 -0.0214814 0)
(-0.0618235 -0.0234474 0)
(-0.0558173 -0.0248609 0)
(-0.0494837 -0.0256643 0)
(-0.0429666 -0.0258122 0)
(-0.0364188 -0.0252745 0)
(-0.0299993 -0.0240407 0)
(-0.0238682 -0.0221247 0)
(-0.0181814 -0.0195701 0)
(-0.013084 -0.0164561 0)
(-0.00870163 -0.0129037 0)
(-0.00513076 -0.0090827 0)
(-0.00242219 -0.00521682 0)
(-0.000573051 -0.00158633 0)
(-0.000719619 0.00242274 0)
(-0.00300593 0.00747185 0)
(-0.00627864 0.0125139 0)
(-0.0105089 0.0172815 0)
(-0.0156132 0.0215652 0)
(-0.0214662 0.0252113 0)
(-0.0279184 0.0281158 0)
(-0.0348064 0.0302174 0)
(-0.041961 0.0314899 0)
(-0.0492125 0.031935 0)
(-0.0563956 0.0315769 0)
(-0.0633525 0.030457 0)
(-0.069936 0.0286294 0)
(-0.0760112 0.026158 0)
(-0.0814575 0.0231138 0)
(-0.0861691 0.0195735 0)
(-0.0900563 0.0156177 0)
(-0.0930459 0.0113303 0)
(-0.0950818 0.00679819 0)
(-0.0961251 0.00211084 0)
(-0.0961544 -0.00263999 0)
(-0.0951667 -0.00736034 0)
(-0.0931767 -0.0119544 0)
(-0.0902178 -0.0163252 0)
(-0.0863422 -0.0203751 0)
(-0.0816206 -0.0240075 0)
(-0.0761422 -0.0271281 0)
(-0.0700144 -0.0296473 0)
(-0.063362 -0.0314826 0)
(-0.0563255 -0.032562 0)
(-0.0490598 -0.0328278 0)
(-0.0417307 -0.0322404 0)
(-0.0345125 -0.0307839 0)
(-0.0275824 -0.0284703 0)
(-0.0211161 -0.0253461 0)
(-0.0152801 -0.0214975 0)
(-0.0102233 -0.0170566 0)
(-0.00606611 -0.0122063 0)
(-0.00288165 -0.0071838 0)
(-0.000684477 -0.00227943 0)
(-0.000829842 0.00325901 0)
(-0.00345714 0.00979332 0)
(-0.00719387 0.0161352 0)
(-0.0119937 0.0220179 0)
(-0.0177508 0.0272302 0)
(-0.0243156 0.0316164 0)
(-0.0315159 0.0350718 0)
(-0.0391675 0.0375364 0)
(-0.047083 0.0389878 0)
(-0.055077 0.0394345 0)
(-0.0629709 0.0389096 0)
(-0.0705958 0.0374652 0)
(-0.0777953 0.0351682 0)
(-0.084427 0.0320966 0)
(-0.0903639 0.0283364 0)
(-0.0954955 0.02398 0)
(-0.099728 0.0191244 0)
(-0.102985 0.0138705 0)
(-0.105208 0.0083223 0)
(-0.106357 0.00258702 0)
(-0.106408 -0.00322552 0)
(-0.105358 -0.00900285 0)
(-0.10322 -0.0146303 0)
(-0.10003 -0.0199914 0)
(-0.0958388 -0.0249692 0)
(-0.0907203 -0.0294472 0)
(-0.0847664 -0.0333117 0)
(-0.078089 -0.0364538 0)
(-0.0708187 -0.0387732 0)
(-0.0631041 -0.0401812 0)
(-0.0551099 -0.0406054 0)
(-0.0470148 -0.0399948 0)
(-0.0390079 -0.0383247 0)
(-0.0312845 -0.0356029 0)
(-0.0240407 -0.0318752 0)
(-0.0174662 -0.0272318 0)
(-0.0117348 -0.021812 0)
(-0.00699233 -0.0158084 0)
(-0.00333496 -0.0094687 0)
(-0.000794145 -0.00309141 0)
(-0.000937756 0.00420929 0)
(-0.00389928 0.0124177 0)
(-0.00809264 0.0202099 0)
(-0.0134547 0.0273216 0)
(-0.0198572 0.0335432 0)
(-0.0271261 0.0387212 0)
(-0.0350652 0.0427541 0)
(-0.043469 0.0455872 0)
(-0.0521314 0.0472056 0)
(-0.0608511 0.0476273 0)
(-0.0694364 0.0468971 0)
(-0.0777082 0.0450804 0)
(-0.0855015 0.0422586 0)
(-0.0926676 0.0385254 0)
(-0.0990748 0.033983 0)
(-0.104609 0.0287407 0)
(-0.109172 0.0229124 0)
(-0.112688 0.0166167 0)
(-0.115095 0.00997516 0)
(-0.116351 0.00311302 0)
(-0.116432 -0.00384149 0)
(-0.115332 -0.0107571 0)
(-0.113067 -0.0174997 0)
(-0.109667 -0.0239332 0)
(-0.105188 -0.02992 0)
(-0.0997003 -0.0353233 0)
(-0.0932993 -0.0400082 0)
(-0.0860993 -0.0438455 0)
(-0.0782355 -0.0467146 0)
(-0.0698632 -0.048508 0)
(-0.0611565 -0.0491362 0)
(-0.052306 -0.0485334 0)
(-0.043516 -0.0466633 0)
(-0.0350004 -0.0435257 0)
(-0.026977 -0.0391626 0)
(-0.01966 -0.0336642 0)
(-0.0132497 -0.0271736 0)
(-0.00791884 -0.0198906 0)
(-0.00378731 -0.0120708 0)
(-0.000903394 -0.00402112 0)
(-0.00104447 0.00527149 0)
(-0.00433662 0.0153406 0)
(-0.00898252 0.0247327 0)
(-0.0149026 0.033187 0)
(-0.0219458 0.0404984 0)
(-0.0299129 0.0465188 0)
(-0.0385834 0.0511541 0)
(-0.0477297 0.054359 0)
(-0.0571263 0.0561298 0)
(-0.0665563 0.0564976 0)
(-0.0758152 0.0555217 0)
(-0.0847139 0.0532835 0)
(-0.0930802 0.0498813 0)
(-0.10076 0.0454257 0)
(-0.107618 0.0400369 0)
(-0.113537 0.0338416 0)
(-0.118419 0.0269719 0)
(-0.122185 0.0195637 0)
(-0.124772 0.0117567 0)
(-0.126138 0.00369426 0)
(-0.126258 -0.00447716 0)
(-0.125125 -0.0126074 0)
(-0.12275 -0.020543 0)
(-0.119167 -0.0281276 0)
(-0.114425 -0.035203 0)
(-0.108597 -0.0416106 0)
(-0.101778 -0.0471938 0)
(-0.0940819 -0.0518008 0)
(-0.0856488 -0.0552889 0)
(-0.0766388 -0.0575293 0)
(-0.0672343 -0.0584121 0)
(-0.0576375 -0.0578535 0)
(-0.048068 -0.0558017 0)
(-0.0387587 -0.0522447 0)
(-0.0299501 -0.0472163 0)
(-0.0218826 -0.0408032 0)
(-0.0147846 -0.0331492 0)
(-0.00885713 -0.024458 0)
(-0.00424502 -0.0149929 0)
(-0.00101384 -0.0050691 0)
(-0.00115117 0.00644482 0)
(-0.0047737 0.0185604 0)
(-0.00987165 0.0297012 0)
(-0.0163486 0.0396111 0)
(-0.0240304 0.0480915 0)
(-0.0326918 0.0550033 0)
(-0.0420873 0.0602639 0)
(-0.0519664 0.0638411 0)
(-0.0620843 0.0657468 0)
(-0.0722082 0.0660289 0)
(-0.0821213 0.0647648 0)
(-0.0916254 0.0620546 0)
(-0.100542 0.0580158 0)
(-0.108713 0.0527781 0)
(-0.116001 0.0464805 0)
(-0.122287 0.0392686 0)
(-0.127473 0.0312925 0)
(-0.131479 0.0227064 0)
(-0.134244 0.0136676 0)
(-0.135723 0.00433713 0)
(-0.135891 -0.00512036 0)
(-0.134739 -0.0145363 0)
(-0.132277 -0.023738 0)
(-0.128534 -0.0325492 0)
(-0.12356 -0.0407905 0)
(-0.117423 -0.0482812 0)
(-0.110217 -0.0548413 0)
(-0.102056 -0.0602953 0)
(-0.093081 -0.0644759 0)
(-0.0834559 -0.0672299 0)
(-0.0733705 -0.0684238 0)
(-0.0630378 -0.0679518 0)
(-0.0526925 -0.0657423 0)
(-0.042587 -0.0617667 0)
(-0.0329857 -0.0560467 0)
(-0.0241561 -0.048661 0)
(-0.016357 -0.0397504 0)
(-0.00981938 -0.0295208 0)
(-0.00471475 -0.0182415 0)
(-0.00112718 -0.00623776 0)
(-0.00125899 0.00772972 0)
(-0.00521499 0.0220777 0)
(-0.010768 0.0351158 0)
(-0.0178041 0.0465931 0)
(-0.0261246 0.0563199 0)
(-0.0354776 0.0641696 0)
(-0.0455916 0.0700747 0)
(-0.0561927 0.0740213 0)
(-0.0670164 0.0760407 0)
(-0.0778145 0.0762021 0)
(-0.0883584 0.0746046 0)
(-0.0984418 0.0713703 0)
(-0.107881 0.0666383 0)
(-0.116516 0.0605595 0)
(-0.124208 0.0532933 0)
(-0.130838 0.0450047 0)
(-0.13631 0.0358625 0)
(-0.140545 0.0260386 0)
(-0.143481 0.0157079 0)
(-0.145075 0.00504862 0)
(-0.1453 -0.00575743 0)
(-0.144146 -0.0165239 0)
(-0.141621 -0.0270596 0)
(-0.137749 -0.0371685 0)
(-0.132576 -0.0466503 0)
(-0.126167 -0.0553015 0)
(-0.118611 -0.0629182 0)
(-0.110022 -0.0692989 0)
(-0.100538 -0.0742497 0)
(-0.0903262 -0.0775897 0)
(-0.0795818 -0.0791581 0)
(-0.0685277 -0.0788222 0)
(-0.0574131 -0.076486 0)
(-0.04651 -0.0720993 0)
(-0.0361074 -0.0656661 0)
(-0.0265019 -0.0572528 0)
(-0.0179841 -0.0469934 0)
(-0.0108177 -0.0350933 0)
(-0.00520313 -0.0218272 0)
(-0.00124513 -0.00753134 0)
(-0.00136906 0.00912785 0)
(-0.00566478 0.0258957 0)
(-0.0116793 0.0409798 0)
(-0.0192794 0.0541348 0)
(-0.0282407 0.0651825 0)
(-0.038283 0.0740123 0)
(-0.0491076 0.0805769 0)
(-0.060417 0.0848847 0)
(-0.0719268 0.0869919 0)
(-0.0833736 0.0869933 0)
(-0.0945182 0.0850139 0)
(-0.105148 0.0812013 0)
(-0.115075 0.0757191 0)
(-0.124138 0.0687415 0)
(-0.1322 0.0604496 0)
(-0.139146 0.0510286 0)
(-0.144879 0.0406661 0)
(-0.149325 0.0295517 0)
(-0.152424 0.0178768 0)
(-0.154133 0.00583592 0)
(-0.154424 -0.00637306 0)
(-0.153286 -0.0185472 0)
(-0.150724 -0.0304778 0)
(-0.146756 -0.0419501 0)
(-0.141424 -0.052743 0)
(-0.134787 -0.0626304 0)
(-0.126929 -0.0713832 0)
(-0.117956 -0.0787728 0)
(-0.108006 -0.0845759 0)
(-0.0972452 -0.0885807 0)
(-0.0858722 -0.0905946 0)
(-0.0741183 -0.0904533 0)
(-0.0622461 -0.0880305 0)
(-0.0505472 -0.0832483 0)
(-0.0393357 -0.0760875 0)
(-0.028939 -0.0665965 0)
(-0.0196819 -0.0548982 0)
(-0.0118635 -0.0411945 0)
(-0.00571655 -0.0257642 0)
(-0.00136932 -0.00895587 0)
(-0.00148245 0.010642 0)
(-0.0061272 0.0300199 0)
(-0.0126128 0.0472985 0)
(-0.0207844 0.0622394 0)
(-0.0303895 0.0746784 0)
(-0.0411181 0.0845253 0)
(-0.052643 0.0917576 0)
(-0.0646421 0.0964119 0)
(-0.0768117 0.0985746 0)
(-0.0888737 0.0983712 0)
(-0.100579 0.0959573 0)
(-0.111711 0.0915098 0)
(-0.122079 0.0852198 0)
(-0.131525 0.0772872 0)
(-0.139915 0.067916 0)
(-0.147136 0.0573123 0)
(-0.153099 0.0456826 0)
(-0.157733 0.0332331 0)
(-0.16098 0.0201712 0)
(-0.1628 0.00670585 0)
(-0.163165 -0.00695033 0)
(-0.162063 -0.0205796 0)
(-0.159492 -0.0339573 0)
(-0.155469 -0.0468511 0)
(-0.150025 -0.0590202 0)
(-0.143213 -0.0702159 0)
(-0.135108 -0.0801837 0)
(-0.12581 -0.0886663 0)
(-0.115449 -0.0954084 0)
(-0.104189 -0.100164 0)
(-0.0922296 -0.102703 0)
(-0.0798077 -0.102825 0)
(-0.0671981 -0.100367 0)
(-0.0547111 -0.0952161 0)
(-0.0426866 -0.0873226 0)
(-0.031484 -0.076711 0)
(-0.0214649 -0.0634877 0)
(-0.0129676 -0.0478469 0)
(-0.00626106 -0.0300704 0)
(-0.00150134 -0.0105191 0)
(-0.00160026 0.0122759 0)
(-0.00660634 0.0344579 0)
(-0.0135754 0.0540799 0)
(-0.0223279 0.0709116 0)
(-0.0325805 0.0848067 0)
(-0.0439904 0.0957 0)
(-0.0562009 0.1036 0)
(-0.0688646 0.108577 0)
(-0.0816584 0.110755 0)
(-0.0942907 0.110295 0)
(-0.106505 0.107389 0)
(-0.118081 0.102247 0)
(-0.128832 0.095091 0)
(-0.138601 0.0861489 0)
(-0.14726 0.0756492 0)
(-0.154707 0.0638192 0)
(-0.160856 0.0508837 0)
(-0.165644 0.0370651 0)
(-0.169018 0.0225846 0)
(-0.170942 0.00766435 0)
(-0.171387 -0.00747084 0)
(-0.170339 -0.0225905 0)
(-0.167794 -0.0374562 0)
(-0.16376 -0.0518199 0)
(-0.158261 -0.0654225 0)
(-0.151338 -0.0779936 0)
(-0.143057 -0.0892529 0)
(-0.133505 -0.0989132 0)
(-0.122804 -0.106685 0)
(-0.111112 -0.112284 0)
(-0.0986232 -0.11544 0)
(-0.0855793 -0.115907 0)
(-0.0722643 -0.113478 0)
(-0.059006 -0.107998 0)
(-0.0461701 -0.0993799 0)
(-0.0341495 -0.0876148 0)
(-0.0233455 -0.0727864 0)
(-0.0141397 -0.0550764 0)
(-0.00684237 -0.0347665 0)
(-0.00164268 -0.0122302 0)
(-0.00172359 0.0140347 0)
(-0.0071064 0.0392195 0)
(-0.0145742 0.0613334 0)
(-0.0239187 0.0801567 0)
(-0.0348216 0.095565 0)
(-0.0469048 0.107524 0)
(-0.0597799 0.11608 0)
(-0.0730737 0.121346 0)
(-0.0864441 0.123487 0)
(-0.0995879 0.122711 0)
(-0.112243 0.119248 0)
(-0.12419 0.113349 0)
(-0.135244 0.105269 0)
(-0.14526 0.0952654 0)
(-0.154116 0.0835933 0)
(-0.161721 0.0705014 0)
(-0.168001 0.0562322 0)
(-0.172899 0.0410228 0)
(-0.176371 0.0251064 0)
(-0.178384 0.00871567 0)
(-0.178912 -0.00791493 0)
(-0.177938 -0.0245451 0)
(-0.175454 -0.0409254 0)
(-0.171462 -0.0567947 0)
(-0.165973 -0.0718775 0)
(-0.159018 -0.0858832 0)
(-0.150645 -0.0985063 0)
(-0.14093 -0.109429 0)
(-0.12998 -0.118325 0)
(-0.11794 -0.124869 0)
(-0.105 -0.128743 0)
(-0.0913981 -0.12965 0)
(-0.0774258 -0.127332 0)
(-0.063426 -0.121581 0)
(-0.0497896 -0.112262 0)
(-0.0369441 -0.099324 0)
(-0.0253339 -0.0828194 0)
(-0.0153885 -0.0629111 0)
(-0.00746584 -0.0398763 0)
(-0.00179481 -0.0141002 0)
(-0.00185371 0.0159243 0)
(-0.00763198 0.0443163 0)
(-0.0156166 0.0690704 0)
(-0.0255653 0.0899801 0)
(-0.0371199 0.106948 0)
(-0.0498635 0.11998 0)
(-0.0633736 0.129166 0)
(-0.0772508 0.134672 0)
(-0.0911351 0.136714 0)
(-0.104713 0.13555 0)
(-0.117722 0.131459 0)
(-0.129943 0.124735 0)
(-0.141204 0.115672 0)
(-0.151368 0.104559 0)
(-0.16033 0.0916771 0)
(-0.168009 0.0772978 0)
(-0.174347 0.0616798 0)
(-0.179298 0.0450729 0)
(-0.182827 0.0277202 0)
(-0.184907 0.00986153 0)
(-0.185517 -0.00826216 0)
(-0.184637 -0.0264043 0)
(-0.182255 -0.044308 0)
(-0.178362 -0.0617022 0)
(-0.172961 -0.0782982 0)
(-0.166064 -0.0937869 0)
(-0.157704 -0.107839 0)
(-0.147936 -0.120106 0)
(-0.136849 -0.130224 0)
(-0.124571 -0.137821 0)
(-0.11128 -0.142526 0)
(-0.0972081 -0.143987 0)
(-0.0826473 -0.14188 0)
(-0.0679531 -0.135937 0)
(-0.05354 -0.125961 0)
(-0.0398713 -0.111849 0)
(-0.0274375 -0.0936103 0)
(-0.0167215 -0.07138 0)
(-0.00813651 -0.0454255 0)
(-0.00195912 -0.0161412 0)
(-0.00199203 0.0179522 0)
(-0.00818831 0.0497623 0)
(-0.0167109 0.0773033 0)
(-0.0272767 0.100386 0)
(-0.0394817 0.118948 0)
(-0.0528657 0.133042 0)
(-0.0669699 0.142816 0)
(-0.0813684 0.148494 0)
(-0.0956846 0.150358 0)
(-0.109599 0.148723 0)
(-0.122848 0.143924 0)
(-0.135225 0.136304 0)
(-0.146569 0.126198 0)
(-0.15676 0.113931 0)
(-0.16571 0.0998114 0)
(-0.17336 0.0841312 0)
(-0.179665 0.0671646 0)
(-0.184596 0.0491719 0)
(-0.18813 0.0304025 0)
(-0.190247 0.0111001 0)
(-0.190931 -0.00849193 0)
(-0.190163 -0.0281249 0)
(-0.187924 -0.047539 0)
(-0.184198 -0.0664572 0)
(-0.178972 -0.0845812 0)
(-0.17224 -0.101587 0)
(-0.164015 -0.117123 0)
(-0.154328 -0.130811 0)
(-0.143243 -0.142248 0)
(-0.130866 -0.151013 0)
(-0.117355 -0.156678 0)
(-0.102928 -0.158822 0)
(-0.0878732 -0.157051 0)
(-0.0725543 -0.15102 0)
(-0.0574066 -0.140457 0)
(-0.0429288 -0.125193 0)
(-0.0296607 -0.105179 0)
(-0.0181452 -0.0805123 0)
(-0.00885914 -0.0514417 0)
(-0.00213698 -0.0183669 0)
(-0.00214026 0.0201274 0)
(-0.00878159 0.0555738 0)
(-0.0178666 0.0860462 0)
(-0.0290626 0.111378 0)
(-0.0419126 0.131551 0)
(-0.0559076 0.146676 0)
(-0.0705504 0.156971 0)
(-0.0853883 0.162734 0)
(-0.100031 0.164321 0)
(-0.114155 0.162117 0)
(-0.127505 0.156521 0)
(-0.139888 0.147928 0)
(-0.151163 0.136721 0)
(-0.161231 0.123262 0)
(-0.170029 0.107886 0)
(-0.17752 0.0909065 0)
(-0.183681 0.0726099 0)
(-0.188502 0.053264 0)
(-0.191973 0.0331212 0)
(-0.194087 0.0124248 0)
(-0.194832 -0.00858438 0)
(-0.194191 -0.0296604 0)
(-0.19214 -0.0505453 0)
(-0.188652 -0.0709617 0)
(-0.1837 -0.0906061 0)
(-0.177258 -0.109144 0)
(-0.169311 -0.126205 0)
(-0.159864 -0.141382 0)
(-0.14895 -0.154233 0)
(-0.136644 -0.164287 0)
(-0.123077 -0.17105 0)
(-0.108444 -0.174029 0)
(-0.093024 -0.172744 0)
(-0.0771792 -0.166758 0)
(-0.0613623 -0.155711 0)
(-0.0461067 -0.139345 0)
(-0.0320043 -0.117539 0)
(-0.0196645 -0.0903356 0)
(-0.0096382 -0.0579536 0)
(-0.00232976 -0.0207921 0)
(-0.00230051 0.0224607 0)
(-0.00941937 0.0617699 0)
(-0.0190948 0.0953141 0)
(-0.030934 0.122956 0)
(-0.0444173 0.144734 0)
(-0.0589815 0.160832 0)
(-0.0740882 0.171555 0)
(-0.089259 0.177291 0)
(-0.104093 0.178481 0)
(-0.118269 0.175592 0)
(-0.131546 0.169097 0)
(-0.143752 0.159451 0)
(-0.154771 0.147087 0)
(-0.164536 0.132405 0)
(-0.173012 0.115768 0)
(-0.18019 0.0975079 0)
(-0.186074 0.0779213 0)
(-0.190674 0.0572799 0)
(-0.194 0.0358344 0)
(-0.196058 0.0138229 0)
(-0.196843 -0.00852157 0)
(-0.196339 -0.0309616 0)
(-0.194521 -0.0532469 0)
(-0.19135 -0.0751055 0)
(-0.186781 -0.0962349 0)
(-0.180768 -0.116295 0)
(-0.173265 -0.134901 0)
(-0.164245 -0.151622 0)
(-0.153703 -0.165977 0)
(-0.141676 -0.177442 0)
(-0.128256 -0.185456 0)
(-0.11361 -0.189441 0)
(-0.0979908 -0.18882 0)
(-0.081755 -0.183051 0)
(-0.0653651 -0.171659 0)
(-0.0493862 -0.154279 0)
(-0.0344644 -0.130695 0)
(-0.0212826 -0.100874 0)
(-0.0104778 -0.0649905 0)
(-0.00253878 -0.0234332 0)
(-0.00247535 0.0249653 0)
(-0.0101109 0.0683732 0)
(-0.0204089 0.105123 0)
(-0.0329027 0.135117 0)
(-0.0469991 0.158465 0)
(-0.0620739 0.175446 0)
(-0.0775454 0.186469 0)
(-0.0929115 0.192032 0)
(-0.107766 0.192679 0)
(-0.121798 0.188973 0)
(-0.134788 0.181467 0)
(-0.146594 0.170684 0)
(-0.157136 0.157111 0)
(-0.166382 0.141185 0)
(-0.174335 0.123299 0)
(-0.181018 0.103797 0)
(-0.186466 0.0829858 0)
(-0.190715 0.0611348 0)
(-0.193798 0.0384886 0)
(-0.195733 0.0152741 0)
(-0.196527 -0.00828892 0)
(-0.196169 -0.0319781 0)
(-0.194627 -0.0555575 0)
(-0.191854 -0.0787673 0)
(-0.187789 -0.101313 0)
(-0.182359 -0.122855 0)
(-0.175489 -0.143002 0)
(-0.16711 -0.161301 0)
(-0.157176 -0.177238 0)
(-0.145675 -0.190235 0)
(-0.132653 -0.199661 0)
(-0.118231 -0.204845 0)
(-0.102628 -0.205099 0)
(-0.0861812 -0.199755 0)
(-0.0693534 -0.188203 0)
(-0.0527364 -0.169944 0)
(-0.0370308 -0.144636 0)
(-0.0230003 -0.112145 0)
(-0.0113815 -0.0725809 0)
(-0.00276533 -0.0263075 0)
(-0.00266797 0.0276576 0)
(-0.0108674 0.0754101 0)
(-0.0218245 0.115489 0)
(-0.0349815 0.147851 0)
(-0.0496584 0.172698 0)
(-0.0651626 0.190429 0)
(-0.0808681 0.201585 0)
(-0.0962533 0.206793 0)
(-0.110914 0.206723 0)
(-0.12456 0.202045 0)
(-0.137004 0.193405 0)
(-0.148145 0.1814 0)
(-0.157946 0.16657 0)
(-0.166421 0.149395 0)
(-0.173616 0.13029 0)
(-0.179593 0.109613 0)
(-0.184423 0.0876704 0)
(-0.188172 0.0647281 0)
(-0.190894 0.0410177 0)
(-0.192628 0.0167494 0)
(-0.193391 -0.00787695 0)
(-0.193177 -0.0326606 0)
(-0.191954 -0.0573872 0)
(-0.189664 -0.0818166 0)
(-0.186229 -0.10567 0)
(-0.181551 -0.128617 0)
(-0.175521 -0.150267 0)
(-0.168027 -0.170153 0)
(-0.158973 -0.187731 0)
(-0.14829 -0.202374 0)
(-0.135964 -0.213377 0)
(-0.12206 -0.219971 0)
(-0.106745 -0.221344 0)
(-0.0903218 -0.21668 0)
(-0.0732404 -0.205208 0)
(-0.0561104 -0.186259 0)
(-0.0396851 -0.159332 0)
(-0.0248151 -0.124159 0)
(-0.0123521 -0.0807521 0)
(-0.00301058 -0.029434 0)
(-0.0028822 0.0305576 0)
(-0.0117024 0.0829115 0)
(-0.0233594 0.126428 0)
(-0.0371825 0.161138 0)
(-0.0523891 0.187366 0)
(-0.068211 0.205664 0)
(-0.083979 0.216734 0)
(-0.0991587 0.221364 0)
(-0.113359 0.220369 0)
(-0.126323 0.214546 0)
(-0.13791 0.20464 0)
(-0.148071 0.191328 0)
(-0.156825 0.175209 0)
(-0.164239 0.156796 0)
(-0.170409 0.136527 0)
(-0.175443 0.114767 0)
(-0.179449 0.0918215 0)
(-0.182527 0.0679418 0)
(-0.184757 0.0433421 0)
(-0.186198 0.0182094 0)
(-0.18688 -0.00728317 0)
(-0.186803 -0.0329632 0)
(-0.185935 -0.0586453 0)
(-0.184212 -0.0841172 0)
(-0.181539 -0.109124 0)
(-0.177792 -0.133356 0)
(-0.172827 -0.156429 0)
(-0.166487 -0.177874 0)
(-0.158619 -0.197125 0)
(-0.14909 -0.213512 0)
(-0.137815 -0.226256 0)
(-0.124782 -0.234486 0)
(-0.110094 -0.237254 0)
(-0.093995 -0.233575 0)
(-0.0769057 -0.222483 0)
(-0.0594395 -0.203103 0)
(-0.0423964 -0.174729 0)
(-0.026719 -0.136911 0)
(-0.0133908 -0.089528 0)
(-0.00327542 -0.0328324 0)
(-0.00312257 0.03369 0)
(-0.0126314 0.0909131 0)
(-0.0250322 0.137953 0)
(-0.039514 0.174945 0)
(-0.0551732 0.202376 0)
(-0.0711601 0.220992 0)
(-0.0867658 0.2317 0)
(-0.101455 0.235482 0)
(-0.114865 0.233322 0)
(-0.12679 0.226159 0)
(-0.137151 0.214851 0)
(-0.145965 0.200156 0)
(-0.153321 0.182727 0)
(-0.159347 0.163113 0)
(-0.164195 0.141766 0)
(-0.168023 0.119052 0)
(-0.17098 0.0952664 0)
(-0.173201 0.0706422 0)
(-0.174794 0.0453687 0)
(-0.175838 0.0196032 0)
(-0.176377 -0.00651417 0)
(-0.176422 -0.0328464 0)
(-0.175941 -0.0592446 0)
(-0.174865 -0.0855323 0)
(-0.173084 -0.111489 0)
(-0.170451 -0.136832 0)
(-0.166789 -0.1612 0)
(-0.161893 -0.184131 0)
(-0.15555 -0.20505 0)
(-0.147556 -0.223249 0)
(-0.13774 -0.237887 0)
(-0.126002 -0.247986 0)
(-0.112353 -0.252453 0)
(-0.0969581 -0.250113 0)
(-0.0801829 -0.239774 0)
(-0.0626239 -0.220303 0)
(-0.0451161 -0.190734 0)
(-0.0286959 -0.150379 0)
(-0.0144961 -0.0989273 0)
(-0.00356017 -0.036524 0)
(-0.00339417 0.0370852 0)
(-0.0136714 0.0994551 0)
(-0.0268602 0.150072 0)
(-0.0419751 0.189216 0)
(-0.0579713 0.217594 0)
(-0.0739136 0.236203 0)
(-0.0890629 0.246206 0)
(-0.1029 0.248816 0)
(-0.115115 0.245218 0)
(-0.125572 0.236509 0)
(-0.134275 0.223663 0)
(-0.141325 0.207522 0)
(-0.146889 0.18879 0)
(-0.151165 0.168042 0)
(-0.154369 0.145738 0)
(-0.15671 0.122237 0)
(-0.158379 0.0978155 0)
(-0.159547 0.0726813 0)
(-0.160348 0.0469918 0)
(-0.160882 0.0208686 0)
(-0.161212 -0.00558752 0)
(-0.161353 -0.032281 0)
(-0.161281 -0.0591063 0)
(-0.160923 -0.0859309 0)
(-0.16016 -0.112577 0)
(-0.158824 -0.138803 0)
(-0.156705 -0.164279 0)
(-0.153557 -0.188566 0)
(-0.149103 -0.211094 0)
(-0.143062 -0.231134 0)
(-0.13517 -0.247791 0)
(-0.12522 -0.259987 0)
(-0.113106 -0.266478 0)
(-0.0988881 -0.265883 0)
(-0.0828424 -0.256741 0)
(-0.0655195 -0.237615 0)
(-0.0477688 -0.207207 0)
(-0.0307164 -0.164512 0)
(-0.0156614 -0.10896 0)
(-0.00386403 -0.0405305 0)
(-0.00370218 0.0407802 0)
(-0.0148389 0.108581 0)
(-0.028854 0.162779 0)
(-0.0445453 0.203862 0)
(-0.0607057 0.232832 0)
(-0.076316 0.251016 0)
(-0.0906246 0.259893 0)
(-0.103156 0.260956 0)
(-0.113681 0.255617 0)
(-0.122164 0.245146 0)
(-0.128713 0.23064 0)
(-0.133529 0.213016 0)
(-0.136869 0.193022 0)
(-0.139011 0.171249 0)
(-0.140232 0.148154 0)
(-0.140795 0.124077 0)
(-0.140933 0.0992673 0)
(-0.140848 0.0739005 0)
(-0.140701 0.0480954 0)
(-0.140612 0.0219319 0)
(-0.140656 -0.00453339 0)
(-0.140863 -0.0312518 0)
(-0.141211 -0.0581668 0)
(-0.141631 -0.0851965 0)
(-0.141996 -0.112215 0)
(-0.142126 -0.139031 0)
(-0.141786 -0.165362 0)
(-0.140689 -0.190807 0)
(-0.138501 -0.214819 0)
(-0.134862 -0.23667 0)
(-0.129407 -0.255425 0)
(-0.121806 -0.269923 0)
(-0.111816 -0.278771 0)
(-0.099353 -0.280364 0)
(-0.0845657 -0.272947 0)
(-0.067917 -0.25471 0)
(-0.0502376 -0.223943 0)
(-0.0327292 -0.179224 0)
(-0.0168718 -0.119622 0)
(-0.00418408 -0.0448742 0)
(-0.00405094 0.0448197 0)
(-0.0161459 0.118335 0)
(-0.0310077 0.176046 0)
(-0.0471665 0.21874 0)
(-0.0632336 0.247825 0)
(-0.0781172 0.265053 0)
(-0.0910844 0.2723 0)
(-0.101743 0.271391 0)
(-0.109983 0.263991 0)
(-0.115901 0.251553 0)
(-0.119736 0.235291 0)
(-0.121806 0.216189 0)
(-0.122466 0.195023 0)
(-0.122076 0.172385 0)
(-0.120975 0.148713 0)
(-0.119475 0.12432 0)
(-0.117848 0.0994168 0)
(-0.116322 0.0741376 0)
(-0.115079 0.0485575 0)
(-0.114256 0.0227103 0)
(-0.11394 -0.00339543 0)
(-0.114173 -0.0297613 0)
(-0.114941 -0.0563836 0)
(-0.116179 -0.0832365 0)
(-0.117762 -0.110253 0)
(-0.119505 -0.137302 0)
(-0.121155 -0.164161 0)
(-0.122396 -0.190487 0)
(-0.122845 -0.215777 0)
(-0.122069 -0.239326 0)
(-0.119599 -0.26019 0)
(-0.114972 -0.277145 0)
(-0.107786 -0.288664 0)
(-0.0977737 -0.29292 0)
(-0.0849092 -0.287826 0)
(-0.0695112 -0.271143 0)
(-0.0523417 -0.240648 0)
(-0.0346474 -0.194373 0)
(-0.0180964 -0.13089 0)
(-0.00451347 -0.0495766 0)
(-0.00444187 0.0492557 0)
(-0.0175914 0.128753 0)
(-0.0332804 0.1898 0)
(-0.0497119 0.233626 0)
(-0.0653033 0.262193 0)
(-0.0789189 0.277811 0)
(-0.0898946 0.282841 0)
(-0.0979772 0.279494 0)
(-0.103225 0.269715 0)
(-0.105908 0.255134 0)
(-0.106417 0.237072 0)
(-0.105202 0.216558 0)
(-0.10272 0.194375 0)
(-0.0994098 0.171095 0)
(-0.0956698 0.147122 0)
(-0.0918509 0.122724 0)
(-0.0882526 0.0980674 0)
(-0.0851223 0.0732362 0)
(-0.0826567 0.0482572 0)
(-0.0810028 0.0231154 0)
(-0.0802589 -0.00223031 0)
(-0.0804741 -0.0278329 0)
(-0.0816467 -0.0537432 0)
(-0.0837201 -0.0799937 0)
(-0.0865788 -0.106581 0)
(-0.090041 -0.133442 0)
(-0.0938525 -0.160429 0)
(-0.09768 -0.18727 0)
(-0.101108 -0.213532 0)
(-0.10364 -0.238564 0)
(-0.104714 -0.261447 0)
(-0.103732 -0.280931 0)
(-0.100111 -0.295385 0)
(-0.0933704 -0.302773 0)
(-0.08325 -0.300663 0)
(-0.0698534 -0.286325 0)
(-0.0537991 -0.256908 0)
(-0.0363248 -0.20974 0)
(-0.0192776 -0.142707 0)
(-0.00483831 -0.0546565 0)
(-0.00486934 0.0541469 0)