/*--------------------------------*- C++ -*----------------------------------*\
| =========                 |                                                 |
| \\      /  F ield         | OpenFOAM: The Open Source CFD Toolbox           |
|  \\    /   O peration     | Version:  4.1                                   |
|   \\  /    A nd           | Web:      www.OpenFOAM.org                      |
|    \\/     M anipulation  |                                                 |
\*---------------------------------------------------------------------------*/
FoamFile
{
    version     2.0;
    format      ascii;
    class       volVectorField;
    location    "0.102";
    object      U;
}
// * * * * * * * * * * * * * * * * * * * * * * * * * * * * * * * * * * * * * //

dimensions      [0 1 -1 0 0 0 0];

internalField   nonuniform List<vector> 
100
(
(-0.0018226 0.00118757 0)
(-0.0049463 0.00137994 0)
(-0.012158 0.00153584 0)
(-0.0156618 0.000540956 0)
(-0.0193863 0.000166756 0)
(-0.0200211 -0.00126872 0)
(-0.0180468 -0.00184674 0)
(-0.014712 -0.00326677 0)
(-0.00659242 -0.00326775 0)
(-0.00264615 -0.00293369 0)
(-0.00318528 0.00563726 0)
(-0.0104295 0.00887601 0)
(-0.0232319 0.00948781 0)
(-0.0300591 0.0064511 0)
(-0.0363003 0.00461381 0)
(-0.0373185 -0.00036994 0)
(-0.0338083 -0.00307309 0)
(-0.027277 -0.00844625 0)
(-0.0131443 -0.00861243 0)
(-0.00421271 -0.00627701 0)
(-0.0038598 0.0148042 0)
(-0.0128856 0.0212026 0)
(-0.0280748 0.0214229 0)
(-0.0364246 0.0131494 0)
(-0.0442051 0.0077247 0)
(-0.0458651 -0.00435917 0)
(-0.0425619 -0.011723 0)
(-0.0349356 -0.0245675 0)
(-0.0180095 -0.0264633 0)
(-0.00595483 -0.0206248 0)
(-0.00606064 0.0222369 0)
(-0.0181326 0.0328256 0)
(-0.0375562 0.0332778 0)
(-0.0485068 0.0222878 0)
(-0.0584097 0.0146581 0)
(-0.061452 -0.0021666 0)
(-0.058731 -0.0131869 0)
(-0.049825 -0.0329173 0)
(-0.0282063 -0.0368276 0)
(-0.0097511 -0.0296852 0)
(-0.00711498 0.0392357 0)
(-0.0211769 0.052367 0)
(-0.0435452 0.0523383 0)
(-0.0566297 0.0332366 0)
(-0.0693277 0.0211056 0)
(-0.0746872 -0.00513944 0)
(-0.0750081 -0.0232636 0)
(-0.0668276 -0.0564821 0)
(-0.0424887 -0.0670979 0)
(-0.0155418 -0.0596727 0)
(-0.0140277 0.0499748 0)
(-0.0349654 0.0686165 0)
(-0.0632106 0.0689741 0)
(-0.0805535 0.0475216 0)
(-0.0957731 0.0336675 0)
(-0.104476 0.00331885 0)
(-0.10916 -0.019521 0)
(-0.102195 -0.0650976 0)
(-0.0737161 -0.0863942 0)
(-0.028124 -0.0865052 0)
(-0.0157171 0.0891532 0)
(-0.0390148 0.100826 0)
(-0.0692378 0.0991842 0)
(-0.0876081 0.0643726 0)
(-0.104647 0.0458255 0)
(-0.114782 0.00618502 0)
(-0.126526 -0.0253757 0)
(-0.123952 -0.0947243 0)
(-0.102007 -0.142419 0)
(-0.0412007 -0.164738 0)
(-0.040476 0.102911 0)
(-0.0753273 0.120664 0)
(-0.0920794 0.117882 0)
(-0.102661 0.081891 0)
(-0.10811 0.0624459 0)
(-0.111476 0.0247285 0)
(-0.126792 -0.00754605 0)
(-0.123616 -0.0888506 0)
(-0.119106 -0.165077 0)
(-0.050898 -0.227397 0)
(-0.0358221 0.207858 0)
(-0.0302745 0.150557 0)
(-0.00732575 0.129742 0)
(0.0193301 0.0780184 0)
(0.0372274 0.056354 0)
(0.0631168 0.0214864 0)
(0.0586789 -0.0121006 0)
(0.0707863 -0.10701 0)
(0.0192864 -0.216104 0)
(0.00661605 -0.343524 0)
(0.149399 0.163227 0)
(0.237337 0.0896386 0)
(0.378238 0.0702144 0)
(0.44274 0.0368337 0)
(0.48963 0.0221895 0)
(0.524021 0.00363684 0)
(0.512944 -0.00875492 0)
(0.506478 -0.0448676 0)
(0.359067 -0.0873541 0)
(0.206045 -0.187661 0)
)
;

boundaryField
{
    movingWall
    {
        type            fixedValue;
        value           uniform (1 0 0);
    }
    fixedWalls
    {
        type            noSlip;
    }
    frontAndBack
    {
        type            empty;
    }
}


// ************************************************************************* //
