/*--------------------------------*- C++ -*----------------------------------*\
| =========                 |                                                 |
| \\      /  F ield         | OpenFOAM: The Open Source CFD Toolbox           |
|  \\    /   O peration     | Version:  4.1                                   |
|   \\  /    A nd           | Web:      www.OpenFOAM.org                      |
|    \\/     M anipulation  |                                                 |
\*---------------------------------------------------------------------------*/
FoamFile
{
    version     2.0;
    format      ascii;
    class       volVectorField;
    location    "0.019";
    object      U;
}
// * * * * * * * * * * * * * * * * * * * * * * * * * * * * * * * * * * * * * //

dimensions      [0 1 -1 0 0 0 0];

internalField   nonuniform List<vector> 
441
(
(0.00336705 -0.00490056 0)
(0.00783913 -0.00304136 0)
(-0.000760585 -2.44704e-165 0)
(0.00150636 -2.25216e-266 0)
(-0.010831 -0.00602599 0)
(-0.00150636 -2.50933e-232 0)
(-1.11308e-202 -3.51425e-203 0)
(-8.78348e-204 -4.27768e-228 0)
(-1.30248e-212 -1.77321e-213 0)
(-0.00461736 7.06311e-266 0)
(-0.0541577 0.01847 0)
(-0.0696508 0.0101703 0)
(-0.0808507 0.00511345 0)
(-0.0756822 0.00129655 0)
(-0.0683009 -0.000286953 0)
(-0.053437 -0.00158047 0)
(-0.0391035 -0.00160054 0)
(-0.0228388 -0.00187006 0)
(-0.00955936 -0.000637164 0)
(-0.00154738 3.89555e-05 0)
(0.00306405 0.00199392 0)
(0.00279736 -0.00607177 0)
(-0.0050479 0.00722037 0)
(-0.0312108 0.00768231 0)
(-0.0590003 0.0118658 0)
(-0.0967578 0.00830948 0)
(-0.127557 -0.00624657 0)
(-0.153939 -0.000883029 0)
(-0.177261 0.000924655 0)
(-0.196623 0.00920697 0)
(-0.217145 0.0478854 0)
(-0.23164 0.044983 0)
(-0.228009 0.0168224 0)
(-0.222301 0.000530488 0)
(-0.200542 -0.0143014 0)
(-0.175191 -0.0219922 0)
(-0.139101 -0.0284834 0)
(-0.103335 -0.0288391 0)
(-0.0650371 -0.028688 0)
(-0.0329903 -0.0203457 0)
(-0.0106815 -0.0134031 0)
(0.00264584 -0.000293653 0)
(0.00592148 -0.00334841 0)
(-0.00787659 0.0305459 0)
(-0.0529368 0.05241 0)
(-0.106554 0.0636877 0)
(-0.165492 0.0615531 0)
(-0.223277 0.0538729 0)
(-0.280117 0.0478155 0)
(-0.320012 0.0412308 0)
(-0.358805 0.0382197 0)
(-0.372898 0.0386746 0)
(-0.363729 0.0300658 0)
(-0.350875 0.00184927 0)
(-0.331313 -0.0218497 0)
(-0.29732 -0.0455992 0)
(-0.257467 -0.060991 0)
(-0.204951 -0.0735654 0)
(-0.152677 -0.0747103 0)
(-0.0968806 -0.0725166 0)
(-0.0505689 -0.0540162 0)
(-0.0164788 -0.035863 0)
(0.00364176 -0.00545107 0)
(0.00627484 -0.00423849 0)
(-0.0116759 0.0676462 0)
(-0.078129 0.106552 0)
(-0.149194 0.126299 0)
(-0.2267 0.125294 0)
(-0.298908 0.110707 0)
(-0.364347 0.0968675 0)
(-0.415572 0.0802069 0)
(-0.454292 0.0635695 0)
(-0.472732 0.0506262 0)
(-0.470158 0.0226427 0)
(-0.452021 -0.0164703 0)
(-0.424085 -0.0531936 0)
(-0.378606 -0.088975 0)
(-0.326095 -0.11423 0)
(-0.258586 -0.134356 0)
(-0.191885 -0.136491 0)
(-0.120366 -0.132107 0)
(-0.0621206 -0.10012 0)
(-0.018048 -0.0688375 0)
(0.00576323 -0.0128132 0)
(6.11496e-165 0.00156871 0)
(-0.0158577 0.114561 0)
(-0.104356 0.189179 0)
(-0.186474 0.211136 0)
(-0.278781 0.210441 0)
(-0.361671 0.190155 0)
(-0.43861 0.163617 0)
(-0.497273 0.13052 0)
(-0.542074 0.0949558 0)
(-0.562448 0.0551958 0)
(-0.561207 0.00969699 0)
(-0.541519 -0.0439131 0)
(-0.507774 -0.0946608 0)
(-0.453629 -0.143679 0)
(-0.390319 -0.180102 0)
(-0.308156 -0.208219 0)
(-0.227894 -0.21168 0)
(-0.138821 -0.20296 0)
(-0.069744 -0.154878 0)
(-0.0135798 -0.104323 0)
(0.0120867 -0.0167781 0)
(-5.1919e-266 0.00489596 0)
(-0.0701531 0.176241 0)
(-0.140299 0.27553 0)
(-0.233675 0.302403 0)
(-0.327094 0.300476 0)
(-0.417908 0.271592 0)
(-0.499071 0.232971 0)
(-0.56499 0.183955 0)
(-0.613999 0.129314 0)
(-0.640632 0.0691354 0)
(-0.645939 0.00181965 0)
(-0.627859 -0.0706806 0)
(-0.592434 -0.140983 0)
(-0.531503 -0.207549 0)
(-0.458666 -0.259352 0)
(-0.361687 -0.298476 0)
(-0.266624 -0.304992 0)
(-0.158186 -0.292637 0)
(-0.0762408 -0.223884 0)
(-0.0044569 -0.153432 0)
(0.016098 -0.0135563 0)
(-0.0195839 0.0752098 0)
(-0.094737 0.251461 0)
(-0.173606 0.353342 0)
(-0.271819 0.396426 0)
(-0.373864 0.394249 0)
(-0.472114 0.361115 0)
(-0.561894 0.310259 0)
(-0.635746 0.244895 0)
(-0.692774 0.170514 0)
(-0.726692 0.0870566 0)
(-0.738684 -0.00270713 0)
(-0.724476 -0.0975273 0)
(-0.689478 -0.190254 0)
(-0.623722 -0.277861 0)
(-0.542645 -0.348651 0)
(-0.429539 -0.401172 0)
(-0.319373 -0.413222 0)
(-0.185389 -0.394769 0)
(-0.0936441 -0.305982 0)
(0.00790527 -0.198023 0)
(5.2928e-266 -0.00402451 0)
(-0.0138536 0.12152 0)
(-0.0862739 0.331307 0)
(-0.185987 0.453378 0)
(-0.297675 0.503573 0)
(-0.412024 0.501301 0)
(-0.521169 0.460189 0)
(-0.620337 0.397113 0)
(-0.704529 0.314983 0)
(-0.771123 0.22067 0)
(-0.815604 0.11471 0)
(-0.837502 -0.000178849 0)
(-0.830794 -0.12068 0)
(-0.79999 -0.24153 0)
(-0.732629 -0.355892 0)
(-0.644913 -0.453033 0)
(-0.516442 -0.524423 0)
(-0.387825 -0.547711 0)
(-0.228492 -0.522861 0)
(-0.117338 -0.413334 0)
(-0.000344924 -0.255084 0)
(1.65885e-24 -1.92377e-24 0)
(-0.0117269 0.172467 0)
(-0.0883689 0.421881 0)
(-0.202759 0.56364 0)
(-0.327089 0.621019 0)
(-0.455107 0.616963 0)
(-0.575949 0.568355 0)
(-0.686639 0.493181 0)
(-0.782491 0.395026 0)
(-0.860863 0.281572 0)
(-0.918053 0.153131 0)
(-0.952243 0.0129361 0)
(-0.956908 -0.135287 0)
(-0.934345 -0.287416 0)
(-0.869774 -0.433533 0)
(-0.778469 -0.563042 0)
(-0.634746 -0.659708 0)
(-0.485321 -0.698019 0)
(-0.291566 -0.668032 0)
(-0.154065 -0.528588 0)
(-0.00288394 -0.320151 0)
(6.69393e-77 -4.14713e-25 0)
(-0.0102461 0.222525 0)
(-0.0891773 0.524006 0)
(-0.216349 0.693207 0)
(-0.352996 0.756825 0)
(-0.494365 0.751067 0)
(-0.627516 0.692168 0)
(-0.749788 0.604339 0)
(-0.858371 0.48929 0)
(-0.9496 0.356648 0)
(-1.02202 0.205782 0)
(-1.07182 0.0388484 0)
(-1.09282 -0.13944 0)
(-1.08446 -0.32858 0)
(-1.02931 -0.513646 0)
(-0.939798 -0.687782 0)
(-0.783641 -0.821283 0)
(-0.610678 -0.889699 0)
(-0.374992 -0.860571 0)
(-0.199974 -0.698258 0)
(-0.00535732 -0.419559 0)
(1.8262e-164 -1.67348e-77 0)
(-0.0110262 0.268987 0)
(-0.097463 0.626337 0)
(-0.239637 0.825627 0)
(-0.389973 0.897177 0)
(-0.544646 0.890315 0)
(-0.689776 0.822308 0)
(-0.822572 0.723451 0)
(-0.943306 0.593942 0)
(-1.04685 0.445149 0)
(-1.13571 0.274971 0)
(-1.20324 0.0842362 0)
(-1.24609 -0.122764 0)
(-1.25871 -0.349658 0)
(-1.22313 -0.578603 0)
(-1.14447 -0.806313 0)
(-0.983971 -0.990516 0)
(-0.788723 -1.10232 0)
(-0.506341 -1.08272 0)
(-0.28133 -0.889312 0)
(-0.0568975 -0.527949 0)
(9.91344e-266 0.00853913 0)
(-0.0129391 0.332253 0)
(-0.106675 0.754867 0)
(-0.262944 0.987579 0)
(-0.425439 1.0629 0)
(-0.591014 1.05248 0)
(-0.745899 0.970542 0)
(-0.886457 0.85896 0)
(-1.01721 0.713633 0)
(-1.13112 0.54952 0)
(-1.23591 0.361869 0)
(-1.32229 0.149145 0)
(-1.39097 -0.0847991 0)
(-1.43196 -0.351953 0)
(-1.4268 -0.629862 0)
(-1.37232 -0.927413 0)
(-1.21936 -1.1816 0)
(-1.00661 -1.36732 0)
(-0.664785 -1.37678 0)
(-0.359965 -1.14469 0)
(-0.0494626 -0.713461 0)
(0.0341565 -0.0568056 0)
(-0.0179962 0.384417 0)
(-0.126569 0.873452 0)
(-0.30431 1.14166 0)
(-0.48183 1.22213 0)
(-0.656115 1.20917 0)
(-0.817486 1.11543 0)
(-0.959143 0.99401 0)
(-1.09429 0.837326 0)
(-1.21149 0.663675 0)
(-1.32787 0.465787 0)
(-1.42905 0.239716 0)
(-1.52531 -0.0127542 0)
(-1.59837 -0.312423 0)
(-1.63717 -0.63779 0)
(-1.62222 -1.01066 0)
(-1.49972 -1.35723 0)
(-1.28793 -1.65188 0)
(-0.878465 -1.73393 0)
(-0.49074 -1.49777 0)
(0.0351561 -0.925825 0)
(1.71904e-231 -0.00853913 0)
(-0.0247732 0.47979 0)
(-0.148092 1.04438 0)
(-0.344548 1.3468 0)
(-0.53269 1.41598 0)
(-0.709235 1.39138 0)
(-0.870119 1.27403 0)
(-1.00469 1.13774 0)
(-1.13547 0.966054 0)
(-1.24635 0.783701 0)
(-1.36429 0.579237 0)
(-1.47086 0.345896 0)
(-1.58673 0.0839592 0)
(-1.6892 -0.241762 0)
(-1.77603 -0.607413 0)
(-1.81833 -1.06704 0)
(-1.75782 -1.5203 0)
(-1.59104 -1.99114 0)
(-1.17078 -2.1872 0)
(-0.705976 -2.05566 0)
(-0.00321073 -1.23088 0)
(4.33749e-202 3.70113e-184 0)
(-0.0428492 0.549986 0)
(-0.198164 1.18709 0)
(-0.424146 1.52208 0)
(-0.623669 1.5811 0)
(-0.788917 1.54462 0)
(-0.93596 1.40714 0)
(-1.04244 1.25866 0)
(-1.15068 1.07728 0)
(-1.23333 0.89236 0)
(-1.33406 0.690275 0)
(-1.42428 0.462366 0)
(-1.54424 0.206901 0)
(-1.65802 -0.121938 0)
(-1.79387 -0.506359 0)
(-1.89405 -1.02459 0)
(-1.94328 -1.58309 0)
(-1.86121 -2.22875 0)
(-1.52634 -2.62632 0)
(-1.01314 -2.64708 0)
(-0.00567406 -1.65324 0)
(1.48045e-183 3.20817e-184 0)
(-0.0630619 0.728384 0)
(-0.247044 1.43001 0)
(-0.487143 1.78137 0)
(-0.680607 1.78194 0)
(-0.814758 1.7104 0)
(-0.92726 1.52791 0)
(-0.984858 1.3562 0)
(-1.04777 1.15714 0)
(-1.07875 0.968101 0)
(-1.13524 0.770476 0)
(-1.18066 0.554615 0)
(-1.2706 0.318206 0)
(-1.36381 0.00385267 0)
(-1.51312 -0.370477 0)
(-1.66032 -0.924147 0)
(-1.82103 -1.55232 0)
(-1.90755 -2.41838 0)
(-1.78052 -3.04338 0)
(-1.44718 -3.59854 0)
(-0.412524 -2.28216 0)
(3.75123e-254 -3.70113e-184 0)
(-0.128458 0.845328 0)
(-0.382111 1.59773 0)
(-0.624058 1.94957 0)
(-0.786076 1.89841 0)
(-0.826853 1.78969 0)
(-0.85726 1.57168 0)
(-0.809516 1.37936 0)
(-0.784715 1.16942 0)
(-0.72149 0.980367 0)
(-0.700259 0.793297 0)
(-0.665064 0.598129 0)
(-0.696288 0.393749 0)
(-0.728686 0.121355 0)
(-0.870299 -0.20337 0)
(-1.01712 -0.71229 0)
(-1.33214 -1.32709 0)
(-1.57437 -2.24954 0)
(-1.99107 -3.08773 0)
(-1.87569 -3.94545 0)
(-1.93213 -3.16734 0)
(-2.29182e-264 -0.19699 0)
(-0.181118 1.25947 0)
(-0.459812 1.9296 0)
(-0.624179 2.20701 0)
(-0.680103 1.98487 0)
(-0.568389 1.79523 0)
(-0.4615 1.5104 0)
(-0.2706 1.29029 0)
(-0.12273 1.06934 0)
(0.0590915 0.885538 0)
(0.182731 0.715254 0)
(0.317946 0.548892 0)
(0.37394 0.384842 0)
(0.429592 0.172007 0)
(0.356726 -0.0755181 0)
(0.263378 -0.475159 0)
(-0.0573347 -0.980423 0)
(-0.411123 -1.78842 0)
(-1.0695 -2.70169 0)
(-1.48768 -3.74095 0)
(-1.88315 -4.03737 0)
(-0.787958 -2.1449 0)
(-0.39708 1.45126 0)
(-0.729221 2.01179 0)
(-0.563591 2.16362 0)
(-0.35353 1.82601 0)
(0.101675 1.57244 0)
(0.443422 1.26683 0)
(0.857551 1.0432 0)
(1.16433 0.83839 0)
(1.48511 0.676939 0)
(1.7123 0.537106 0)
(1.94099 0.408026 0)
(2.06784 0.289003 0)
(2.19909 0.139245 0)
(2.17637 -0.0238825 0)
(2.15638 -0.296727 0)
(1.847 -0.629968 0)
(1.52638 -1.23425 0)
(0.702415 -1.97468 0)
(0.0172574 -3.12598 0)
(-0.888592 -3.79613 0)
(-0.686146 -2.89694 0)
(-0.250089 2.4475 0)
(-0.075092 2.0907 0)
(0.714219 1.88251 0)
(1.33422 1.31338 0)
(2.09114 1.02062 0)
(2.63336 0.750272 0)
(3.18046 0.577879 0)
(3.57405 0.439909 0)
(3.94897 0.339628 0)
(4.21152 0.260047 0)
(4.46237 0.191525 0)
(4.6078 0.130956 0)
(4.75586 0.0579885 0)
(4.7585 -0.022239 0)
(4.77293 -0.157293 0)
(4.51944 -0.328844 0)
(4.26437 -0.67112 0)
(3.47331 -1.15569 0)
(2.6351 -2.20733 0)
(0.987289 -3.28902 0)
(-0.0417933 -3.79449 0)
(1.67226 1.67475 0)
(2.72855 0.981843 0)
(4.58653 0.753586 0)
(5.426 0.423985 0)
(6.27366 0.281195 0)
(6.74619 0.168652 0)
(7.17414 0.109537 0)
(7.43843 0.0687917 0)
(7.67518 0.0440125 0)
(7.82196 0.0269344 0)
(7.95989 0.0138706 0)
(8.02467 0.00292554 0)
(8.09622 -0.0112377 0)
(8.0664 -0.0265214 0)
(8.05693 -0.0585579 0)
(7.84198 -0.0933591 0)
(7.65764 -0.189474 0)
(6.96346 -0.293124 0)
(6.25869 -0.637489 0)
(4.05039 -1.01571 0)
(2.02193 -1.8427 0)
)
;

boundaryField
{
    movingWall
    {
        type            fixedValue;
        value           uniform (10 0 0);
    }
    fixedWalls
    {
        type            noSlip;
    }
    frontAndBack
    {
        type            empty;
    }
}


// ************************************************************************* //
