/*--------------------------------*- C++ -*----------------------------------*\
| =========                 |                                                 |
| \\      /  F ield         | OpenFOAM: The Open Source CFD Toolbox           |
|  \\    /   O peration     | Version:  4.1                                   |
|   \\  /    A nd           | Web:      www.OpenFOAM.org                      |
|    \\/     M anipulation  |                                                 |
\*---------------------------------------------------------------------------*/
FoamFile
{
    version     2.0;
    format      ascii;
    class       volVectorField;
    location    "0.0765";
    object      U;
}
// * * * * * * * * * * * * * * * * * * * * * * * * * * * * * * * * * * * * * //

dimensions      [0 1 -1 0 0 0 0];

internalField   nonuniform List<vector> 
6400
(
(7.73036e-06 -7.69476e-06 0)
(2.91265e-05 -1.11469e-05 0)
(4.65577e-05 -7.6337e-06 0)
(5.40679e-05 1.4147e-06 0)
(4.7584e-05 1.40496e-05 0)
(2.47167e-05 2.87503e-05 0)
(-1.57058e-05 4.44106e-05 0)
(-7.39701e-05 6.02468e-05 0)
(-0.000149737 7.5709e-05 0)
(-0.00024223 9.04157e-05 0)
(-0.000350372 0.000104106 0)
(-0.000472882 0.000116605 0)
(-0.000608349 0.000127801 0)
(-0.000755279 0.000137627 0)
(-0.000912136 0.00014605 0)
(-0.00107737 0.000153061 0)
(-0.00124943 0.000158668 0)
(-0.0014268 0.000162895 0)
(-0.00160798 0.000165773 0)
(-0.00179152 0.00016734 0)
(-0.00197601 0.000167644 0)
(-0.00216011 0.000166731 0)
(-0.00234249 0.000164655 0)
(-0.00252194 0.000161469 0)
(-0.00269727 0.000157228 0)
(-0.00286735 0.000151991 0)
(-0.00303114 0.000145814 0)
(-0.00318763 0.000138755 0)
(-0.0033359 0.000130874 0)
(-0.00347508 0.000122229 0)
(-0.00360438 0.000112881 0)
(-0.00372305 0.000102889 0)
(-0.00383043 9.23133e-05 0)
(-0.00392592 8.12151e-05 0)
(-0.00400897 6.96558e-05 0)
(-0.00407912 5.76978e-05 0)
(-0.00413597 4.5404e-05 0)
(-0.00417918 3.28382e-05 0)
(-0.0042085 2.00654e-05 0)
(-0.00422374 7.15152e-06 0)
(-0.00422478 -5.83651e-06 0)
(-0.00421157 -1.88305e-05 0)
(-0.00418415 -3.1761e-05 0)
(-0.00414262 -4.45576e-05 0)
(-0.00408717 -5.71487e-05 0)
(-0.00401806 -6.94617e-05 0)
(-0.00393563 -8.14229e-05 0)
(-0.00384032 -9.29581e-05 0)
(-0.00373262 -0.000103992 0)
(-0.00361311 -0.00011445 0)
(-0.00348248 -0.000124257 0)
(-0.00334146 -0.000133337 0)
(-0.00319089 -0.000141615 0)
(-0.00303169 -0.00014902 0)
(-0.00286483 -0.000155477 0)
(-0.00269141 -0.000160918 0)
(-0.00251254 -0.000165274 0)
(-0.00232947 -0.000168481 0)
(-0.00214346 -0.000170478 0)
(-0.00195587 -0.000171209 0)
(-0.00176811 -0.000170622 0)
(-0.00158164 -0.000168674 0)
(-0.00139797 -0.000165326 0)
(-0.00121863 -0.000160551 0)
(-0.00104521 -0.000154331 0)
(-0.000879282 -0.000146663 0)
(-0.000722438 -0.00013756 0)
(-0.000576244 -0.000127054 0)
(-0.000442221 -0.000115206 0)
(-0.000321822 -0.000102111 0)
(-0.000216387 -8.79128e-05 0)
(-0.00012709 -7.28145e-05 0)
(-5.48708e-05 -5.71069e-05 0)
(-3.39371e-07 -4.11983e-05 0)
(3.6359e-05 -2.56595e-05 0)
(5.57229e-05 -1.12865e-05 0)
(5.91415e-05 8.18463e-07 0)
(4.92045e-05 9.16692e-06 0)
(3.01261e-05 1.19006e-05 0)
(7.8846e-06 7.81877e-06 0)
(1.13118e-05 -2.90645e-05 0)
(4.3576e-05 -4.30906e-05 0)
(6.20996e-05 -2.52691e-05 0)
(5.31029e-05 1.43848e-05 0)
(6.9128e-06 6.79265e-05 0)
(-8.23572e-05 0.000129443 0)
(-0.000217778 0.000194632 0)
(-0.000400282 0.000260409 0)
(-0.000629216 0.000324585 0)
(-0.000902768 0.000385624 0)
(-0.00121829 0.000442462 0)
(-0.00157254 0.000494379 0)
(-0.00196186 0.000540907 0)
(-0.00238234 0.00058176 0)
(-0.00282989 0.000616792 0)
(-0.00330033 0.000645954 0)
(-0.00378949 0.000669273 0)
(-0.00429318 0.000686833 0)
(-0.0048073 0.000698761 0)
(-0.00532784 0.000705214 0)
(-0.00585088 0.000706374 0)
(-0.00637266 0.000702441 0)
(-0.00688953 0.000693628 0)
(-0.007398 0.000680158 0)
(-0.00789477 0.000662261 0)
(-0.00837665 0.000640175 0)
(-0.00884068 0.00061414 0)
(-0.00928403 0.000584398 0)
(-0.00970407 0.000551197 0)
(-0.0100983 0.000514785 0)
(-0.0104646 0.000475411 0)
(-0.0108007 0.000433329 0)
(-0.0111048 0.000388791 0)
(-0.0113751 0.000342056 0)
(-0.0116102 0.000293382 0)
(-0.0118087 0.000243031 0)
(-0.0119695 0.00019127 0)
(-0.0120916 0.000138368 0)
(-0.0121743 8.45969e-05 0)
(-0.0122171 3.02362e-05 0)
(-0.0122196 -2.44322e-05 0)
(-0.0121818 -7.91212e-05 0)
(-0.0121037 -0.000133539 0)
(-0.0119857 -0.000187389 0)
(-0.0118283 -0.000240369 0)
(-0.0116322 -0.000292175 0)
(-0.0113985 -0.000342499 0)
(-0.0111283 -0.000391027 0)
(-0.0108231 -0.000437445 0)
(-0.0104846 -0.000481439 0)
(-0.0101146 -0.000522693 0)
(-0.00971535 -0.000560893 0)
(-0.00928913 -0.000595727 0)
(-0.00883854 -0.000626888 0)
(-0.00836638 -0.000654077 0)
(-0.00787565 -0.000677 0)
(-0.00736958 -0.000695377 0)
(-0.00685157 -0.000708939 0)
(-0.00632523 -0.000717435 0)
(-0.00579432 -0.000720632 0)
(-0.00526276 -0.00071832 0)
(-0.0047346 -0.000710318 0)
(-0.00421402 -0.000696474 0)
(-0.00370525 -0.000676678 0)
(-0.00321262 -0.000650864 0)
(-0.00274044 -0.000619022 0)
(-0.00229299 -0.000581214 0)
(-0.0018745 -0.000537586 0)
(-0.00148899 -0.000488396 0)
(-0.0011403 -0.000434047 0)
(-0.000831877 -0.000375127 0)
(-0.000566696 -0.000312479 0)
(-0.000347059 -0.000247284 0)
(-0.000174359 -0.000181184 0)
(-4.87705e-05 -0.000116452 0)
(3.11542e-05 -5.62168e-05 0)
(6.90061e-05 -4.76223e-06 0)
(7.11421e-05 3.21259e-05 0)
(4.7569e-05 4.68231e-05 0)
(1.21592e-05 2.99911e-05 0)
(8.00003e-06 -4.66704e-05 0)
(2.65446e-05 -6.1675e-05 0)
(1.88087e-05 -1.70394e-05 0)
(-3.29829e-05 6.82581e-05 0)
(-0.000141762 0.00017963 0)
(-0.000315645 0.00030614 0)
(-0.000559026 0.000439694 0)
(-0.000873364 0.000574371 0)
(-0.00125786 0.000705877 0)
(-0.00170999 0.000831133 0)
(-0.00222596 0.00094796 0)
(-0.00280104 0.00105485 0)
(-0.00342981 0.00115079 0)
(-0.00410639 0.00123513 0)
(-0.00482462 0.00130754 0)
(-0.00557811 0.00136784 0)
(-0.00636043 0.00141607 0)
(-0.00716515 0.00145235 0)
(-0.00798589 0.00147691 0)
(-0.00881638 0.00149006 0)
(-0.0096505 0.00149215 0)
(-0.0104823 0.00148358 0)
(-0.0113062 0.00146477 0)
(-0.0121165 0.00143618 0)
(-0.012908 0.00139829 0)
(-0.0136757 0.00135157 0)
(-0.014415 0.00129654 0)
(-0.0151212 0.0012337 0)
(-0.0157902 0.00116356 0)
(-0.0164182 0.00108664 0)
(-0.0170014 0.00100348 0)
(-0.0175367 0.000914594 0)
(-0.0180208 0.00082053 0)
(-0.0184512 0.000721827 0)
(-0.0188253 0.000619034 0)
(-0.0191411 0.000512707 0)
(-0.0193968 0.000403408 0)
(-0.0195909 0.000291709 0)
(-0.0197222 0.000178188 0)
(-0.0197899 6.34333e-05 0)
(-0.0197935 -5.19563e-05 0)
(-0.0197328 -0.000167374 0)
(-0.019608 -0.000282203 0)
(-0.0194196 -0.000395816 0)
(-0.0191685 -0.000507578 0)
(-0.018856 -0.000616846 0)
(-0.0184835 -0.000722969 0)
(-0.018053 -0.000825291 0)
(-0.0175669 -0.000923152 0)
(-0.0170278 -0.00101589 0)
(-0.0164387 -0.00110285 0)
(-0.015803 -0.00118336 0)
(-0.0151245 -0.00125679 0)
(-0.0144073 -0.00132248 0)
(-0.0136558 -0.00137982 0)
(-0.0128747 -0.0014282 0)
(-0.0120692 -0.00146704 0)
(-0.0112447 -0.00149579 0)
(-0.0104067 -0.00151393 0)
(-0.00956121 -0.00152099 0)
(-0.00871439 -0.00151655 0)
(-0.00787257 -0.00150024 0)
(-0.00704224 -0.00147178 0)
(-0.00623001 -0.00143096 0)
(-0.00544256 -0.00137767 0)
(-0.00468654 -0.00131192 0)
(-0.00396854 -0.00123389 0)
(-0.00329496 -0.00114392 0)
(-0.00267194 -0.00104259 0)
(-0.00210519 -0.000930763 0)
(-0.00159985 -0.000809702 0)
(-0.00116026 -0.000681154 0)
(-0.000789718 -0.00054753 0)
(-0.000490133 -0.000412115 0)
(-0.000261626 -0.000279359 0)
(-0.000102012 -0.000155272 0)
(-6.16313e-06 -4.79145e-05 0)
(3.46989e-05 3.19934e-05 0)
(3.39949e-05 7.03766e-05 0)
(9.71618e-06 4.92389e-05 0)
(-7.77826e-07 -5.46896e-05 0)
(-1.2034e-05 -5.33923e-05 0)
(-6.46214e-05 3.44812e-05 0)
(-0.000177934 0.000182002 0)
(-0.000366386 0.000368235 0)
(-0.000639132 0.000577187 0)
(-0.00100118 0.000796769 0)
(-0.00145416 0.00101794 0)
(-0.00199703 0.00123399 0)
(-0.00262668 0.00144001 0)
(-0.00333837 0.00163244 0)
(-0.00412616 0.00180876 0)
(-0.00498321 0.00196724 0)
(-0.00590203 0.00210674 0)
(-0.0068747 0.00222658 0)
(-0.00789301 0.00232644 0)
(-0.00894861 0.00240627 0)
(-0.0100331 0.00246623 0)
(-0.0111382 0.00250665 0)
(-0.0122555 0.00252798 0)
(-0.0133772 0.00253077 0)
(-0.0144953 0.00251566 0)
(-0.0156022 0.00248334 0)
(-0.0166906 0.00243455 0)
(-0.0177536 0.00237006 0)
(-0.0187845 0.00229069 0)
(-0.019777 0.00219726 0)
(-0.020725 0.00209062 0)
(-0.021623 0.00197164 0)
(-0.0224657 0.00184118 0)
(-0.0232484 0.00170014 0)
(-0.0239665 0.00154942 0)
(-0.024616 0.00138993 0)
(-0.0251932 0.00122258 0)
(-0.025695 0.00104831 0)
(-0.0261184 0.000868064 0)
(-0.0264611 0.000682793 0)
(-0.026721 0.000493469 0)
(-0.0268968 0.000301078 0)
(-0.0269871 0.000106618 0)
(-0.0269914 -8.88945e-05 0)
(-0.0269095 -0.00028443 0)
(-0.0267415 -0.00047894 0)
(-0.0264883 -0.000671365 0)
(-0.026151 -0.000860628 0)
(-0.0257313 -0.00104564 0)
(-0.0252312 -0.0012253 0)
(-0.0246535 -0.00139851 0)
(-0.0240011 -0.00156415 0)
(-0.0232778 -0.0017211 0)
(-0.0224875 -0.00186827 0)
(-0.0216347 -0.00200453 0)
(-0.0207246 -0.00212882 0)
(-0.0197624 -0.00224005 0)
(-0.0187543 -0.00233718 0)
(-0.0177064 -0.00241922 0)
(-0.0166256 -0.00248519 0)
(-0.015519 -0.00253419 0)
(-0.0143941 -0.00256537 0)
(-0.0132588 -0.00257797 0)
(-0.0121211 -0.00257129 0)
(-0.0109894 -0.00254479 0)
(-0.00987219 -0.00249799 0)
(-0.00877822 -0.00243061 0)
(-0.00771615 -0.00234251 0)
(-0.00669466 -0.00223379 0)
(-0.00572228 -0.00210477 0)
(-0.00480728 -0.0019561 0)
(-0.00395753 -0.00178882 0)
(-0.0031803 -0.00160442 0)
(-0.00248211 -0.00140505 0)
(-0.00186842 -0.00119359 0)
(-0.00134334 -0.000973981 0)
(-0.000909248 -0.000751446 0)
(-0.000566362 -0.000532941 0)
(-0.000312157 -0.000327649 0)
(-0.000140726 -0.00014763 0)
(-4.20863e-05 -8.60342e-06 0)
(-1.1696e-06 6.91301e-05 0)
(1.80278e-06 5.97774e-05 0)
(-1.31418e-05 -4.91246e-05 0)
(-6.4521e-05 -8.65858e-06 0)
(-0.000174292 0.000142204 0)
(-0.000362068 0.000370103 0)
(-0.000642493 0.000648541 0)
(-0.00102479 0.000956827 0)
(-0.00151387 0.00127898 0)
(-0.00211114 0.00160278 0)
(-0.00281509 0.00191899 0)
(-0.00362195 0.00222068 0)
(-0.00452611 0.00250274 0)
(-0.00552058 0.00276146 0)
(-0.0065973 0.00299423 0)
(-0.00774741 0.00319929 0)
(-0.00896149 0.00337554 0)
(-0.0102298 0.00352241 0)
(-0.0115422 0.00363971 0)
(-0.0128889 0.00372761 0)
(-0.0142595 0.00378652 0)
(-0.0156443 0.00381703 0)
(-0.0170335 0.00381992 0)
(-0.0184174 0.00379609 0)
(-0.019787 0.00374651 0)
(-0.0211332 0.00367227 0)
(-0.0224476 0.00357451 0)
(-0.0237219 0.0034544 0)
(-0.0249484 0.00331317 0)
(-0.0261199 0.00315209 0)
(-0.0272293 0.00297244 0)
(-0.0282703 0.00277554 0)
(-0.0292369 0.0025627 0)
(-0.0301237 0.00233529 0)
(-0.0309257 0.00209467 0)
(-0.0316383 0.00184223 0)
(-0.0322576 0.00157937 0)
(-0.0327801 0.00130752 0)
(-0.0332028 0.00102812 0)
(-0.0335234 0.000742635 0)
(-0.0337399 0.000452557 0)
(-0.0338509 0.000159391 0)
(-0.0338557 -0.000135329 0)
(-0.0337541 -0.000430049 0)
(-0.0335463 -0.000723189 0)
(-0.0332333 -0.00101315 0)
(-0.0328164 -0.00129832 0)
(-0.0322979 -0.00157705 0)
(-0.0316802 -0.00184769 0)
(-0.0309667 -0.00210859 0)
(-0.0301611 -0.00235808 0)
(-0.0292679 -0.00259448 0)
(-0.028292 -0.00281615 0)
(-0.0272391 -0.00302142 0)
(-0.0261152 -0.00320869 0)
(-0.0249271 -0.00337637 0)
(-0.023682 -0.0035229 0)
(-0.0223877 -0.0036468 0)
(-0.0210524 -0.00374665 0)
(-0.0196848 -0.00382112 0)
(-0.0182942 -0.00386897 0)
(-0.0168899 -0.0038891 0)
(-0.0154818 -0.00388052 0)
(-0.0140802 -0.00384244 0)
(-0.0126952 -0.00377423 0)
(-0.0113375 -0.00367551 0)
(-0.0100173 -0.00354617 0)
(-0.00874524 -0.0033864 0)
(-0.00753141 -0.00319679 0)
(-0.00638571 -0.00297837 0)
(-0.00531748 -0.00273276 0)
(-0.00433536 -0.00246224 0)
(-0.00344703 -0.00217 0)
(-0.00265894 -0.00186027 0)
(-0.001976 -0.00153868 0)
(-0.00140116 -0.00121263 0)
(-0.000934947 -0.000891704 0)
(-0.000574971 -0.000588342 0)
(-0.000315252 -0.000318526 0)
(-0.000145578 -0.000102661 0)
(-5.04751e-05 3.34334e-05 0)
(-9.75765e-06 5.75702e-05 0)
(-2.76751e-05 -2.75524e-05 0)
(-0.000125444 7.8624e-05 0)
(-0.0003002 0.000314708 0)
(-0.000570994 0.000642463 0)
(-0.000951857 0.0010308 0)
(-0.00145133 0.00145491 0)
(-0.00207367 0.00189523 0)
(-0.00281958 0.00233649 0)
(-0.00368687 0.00276693 0)
(-0.00467093 0.00317755 0)
(-0.00576527 0.00356159 0)
(-0.0069619 0.00391405 0)
(-0.00825163 0.00423133 0)
(-0.00962439 0.00451094 0)
(-0.0110695 0.00475129 0)
(-0.0125757 0.00495146 0)
(-0.0141317 0.00511112 0)
(-0.0157258 0.00523037 0)
(-0.0173465 0.00530969 0)
(-0.0189824 0.00534983 0)
(-0.0206222 0.00535178 0)
(-0.0222548 0.00531671 0)
(-0.0238696 0.00524595 0)
(-0.0254562 0.00514093 0)
(-0.0270047 0.00500321 0)
(-0.0285055 0.00483439 0)
(-0.0299497 0.00463617 0)
(-0.0313286 0.00441027 0)
(-0.0326343 0.00415848 0)
(-0.0338592 0.00388262 0)
(-0.0349964 0.00358453 0)
(-0.0360396 0.0032661 0)
(-0.0369827 0.00292923 0)
(-0.0378207 0.00257587 0)
(-0.0385488 0.00220797 0)
(-0.039163 0.00182753 0)
(-0.0396598 0.00143657 0)
(-0.0400364 0.00103714 0)
(-0.0402906 0.000631314 0)
(-0.0404208 0.000221217 0)
(-0.0404261 -0.000191012 0)
(-0.0403062 -0.000603199 0)
(-0.0400616 -0.00101314 0)
(-0.0396931 -0.0014186 0)
(-0.0392027 -0.00181732 0)
(-0.0385927 -0.00220701 0)
(-0.0378663 -0.00258538 0)
(-0.0370271 -0.00295012 0)
(-0.0360797 -0.0032989 0)
(-0.0350292 -0.00362942 0)
(-0.0338815 -0.00393936 0)
(-0.032643 -0.00422646 0)
(-0.031321 -0.00448847 0)
(-0.0299233 -0.00472319 0)
(-0.0284582 -0.00492851 0)
(-0.0269348 -0.00510237 0)
(-0.0253627 -0.00524285 0)
(-0.0237521 -0.0053481 0)
(-0.0221134 -0.00541648 0)
(-0.0204579 -0.00544647 0)
(-0.0187967 -0.00543679 0)
(-0.0171417 -0.00538637 0)
(-0.0155047 -0.00529443 0)
(-0.0138978 -0.00516051 0)
(-0.012333 -0.00498454 0)
(-0.0108223 -0.00476687 0)
(-0.00937724 -0.0045084 0)
(-0.00800919 -0.00421065 0)
(-0.00672878 -0.00387591 0)
(-0.00554586 -0.00350737 0)
(-0.0044692 -0.00310937 0)
(-0.00350622 -0.00268763 0)
(-0.00266267 -0.00224962 0)
(-0.00194222 -0.00180492 0)
(-0.00134602 -0.00136581 0)
(-0.00087223 -0.000947866 0)
(-0.000515402 -0.000570717 0)
(-0.000265839 -0.000258933 0)
(-0.000108495 -4.29507e-05 0)
(-2.35596e-05 4.01249e-05 0)
(-4.33938e-05 1.13658e-05 0)
(-0.000191013 0.000212096 0)
(-0.000435317 0.00055741 0)
(-0.00079441 0.00100558 0)
(-0.00128118 0.00152192 0)
(-0.00190295 0.00207816 0)
(-0.00266285 0.00265157 0)
(-0.00356054 0.0032241 0)
(-0.0045928 0.00378156 0)
(-0.00575409 0.00431296 0)
(-0.00703691 0.00480984 0)
(-0.00843223 0.00526589 0)
(-0.00992981 0.00567645 0)
(-0.0115184 0.00603825 0)
(-0.0131862 0.00634911 0)
(-0.0149207 0.00660776 0)
(-0.0167092 0.00681365 0)
(-0.0185389 0.0069668 0)
(-0.0203969 0.00706774 0)
(-0.0222704 0.00711735 0)
(-0.0241467 0.00711686 0)
(-0.0260135 0.00706773 0)
(-0.0278589 0.00697164 0)
(-0.0296711 0.00683044 0)
(-0.0314389 0.00664611 0)
(-0.0331518 0.00642076 0)
(-0.0347995 0.00615658 0)
(-0.0363723 0.00585583 0)
(-0.0378612 0.00552085 0)
(-0.0392577 0.00515402 0)
(-0.040554 0.0047578 0)
(-0.0417428 0.00433466 0)
(-0.0428175 0.00388712 0)
(-0.0437722 0.00341775 0)
(-0.0446016 0.00292916 0)
(-0.0453011 0.00242398 0)
(-0.0458669 0.00190489 0)
(-0.0462957 0.00137462 0)
(-0.046585 0.000835917 0)
(-0.0467331 0.000291595 0)
(-0.0467389 -0.000255508 0)
(-0.0466022 -0.00080251 0)
(-0.0463233 -0.00134649 0)
(-0.0459035 -0.00188449 0)
(-0.0453448 -0.00241352 0)
(-0.04465 -0.00293056 0)
(-0.0438224 -0.00343258 0)
(-0.0428664 -0.00391652 0)
(-0.0417871 -0.00437932 0)
(-0.0405903 -0.00481795 0)
(-0.0392826 -0.00522936 0)
(-0.0378714 -0.00561057 0)
(-0.0363646 -0.00595864 0)
(-0.0347712 -0.00627069 0)
(-0.0331006 -0.00654395 0)
(-0.031363 -0.00677575 0)
(-0.0295692 -0.00696356 0)
(-0.0277306 -0.00710503 0)
(-0.025859 -0.00719802 0)
(-0.0239668 -0.00724058 0)
(-0.0220668 -0.00723109 0)
(-0.020172 -0.00716822 0)
(-0.0182959 -0.00705102 0)
(-0.0164518 -0.00687897 0)
(-0.0146531 -0.00665204 0)
(-0.0129132 -0.00637081 0)
(-0.011245 -0.00603653 0)
(-0.00966101 -0.00565127 0)
(-0.00817321 -0.00521806 0)
(-0.00679252 -0.0047411 0)
(-0.00552879 -0.00422595 0)
(-0.00439045 -0.00367989 0)
(-0.00338418 -0.00311222 0)
(-0.00251455 -0.00253476 0)
(-0.00178365 -0.00196232 0)
(-0.00119057 -0.00141341 0)
(-0.000730836 -0.000910952 0)
(-0.000395819 -0.000483046 0)
(-0.000171426 -0.000163821 0)
(-3.86145e-05 6.0305e-06 0)
(-5.9643e-05 6.82285e-05 0)
(-0.000258681 0.000393646 0)
(-0.000574831 0.00087338 0)
(-0.00102511 0.00146337 0)
(-0.00162098 0.00212621 0)
(-0.00236818 0.00283085 0)
(-0.00326837 0.00355187 0)
(-0.00431983 0.00426875 0)
(-0.00551811 0.00496508 0)
(-0.0068565 0.00562797 0)
(-0.00832641 0.00624735 0)
(-0.00991772 0.00681557 0)
(-0.0116191 0.00732692 0)
(-0.0134182 0.00777732 0)
(-0.015302 0.00816399 0)
(-0.017257 0.00848524 0)
(-0.0192693 0.00874028 0)
(-0.0213249 0.00892905 0)
(-0.0234096 0.0090521 0)
(-0.0255094 0.00911046 0)
(-0.0276106 0.00910558 0)
(-0.0296995 0.00903923 0)
(-0.0317631 0.00891348 0)
(-0.0337884 0.0087306 0)
(-0.0357633 0.00849306 0)
(-0.037676 0.00820347 0)
(-0.0395152 0.0078646 0)
(-0.0412703 0.00747929 0)
(-0.0429313 0.00705048 0)
(-0.0444888 0.0065812 0)
(-0.0459343 0.00607454 0)
(-0.0472597 0.00553365 0)
(-0.0484577 0.00496174 0)
(-0.0495217 0.00436206 0)
(-0.050446 0.00373794 0)
(-0.0512255 0.00309273 0)
(-0.0518559 0.00242985 0)
(-0.0523336 0.00175277 0)
(-0.052656 0.001065 0)
(-0.052821 0.000370121 0)
(-0.0528275 -0.000328257 0)
(-0.0526752 -0.00102646 0)
(-0.0523646 -0.00172077 0)
(-0.0518971 -0.00240742 0)
(-0.0512748 -0.00308262 0)
(-0.0505008 -0.00374252 0)
(-0.0495789 -0.00438327 0)
(-0.0485139 -0.005001 0)
(-0.0473114 -0.00559184 0)
(-0.0459778 -0.00615192 0)
(-0.0445203 -0.00667741 0)
(-0.0429471 -0.00716453 0)
(-0.0412672 -0.00760957 0)
(-0.03949 -0.00800891 0)
(-0.0376263 -0.00835904 0)
(-0.035687 -0.00865664 0)
(-0.0336841 -0.00889853 0)
(-0.03163 -0.00908177 0)
(-0.0295379 -0.0092037 0)
(-0.0274213 -0.00926192 0)
(-0.0252941 -0.00925444 0)
(-0.0231708 -0.00917965 0)
(-0.0210659 -0.00903641 0)
(-0.0189941 -0.00882416 0)
(-0.0169701 -0.00854295 0)
(-0.0150084 -0.00819359 0)
(-0.0131233 -0.00777773 0)
(-0.0113284 -0.00729802 0)
(-0.00963683 -0.0067583 0)
(-0.00806063 -0.00616378 0)
(-0.00661075 -0.0055213 0)
(-0.0052967 -0.0048397 0)
(-0.00412622 -0.00413009 0)
(-0.00310501 -0.00340639 0)
(-0.00223629 -0.00268585 0)
(-0.00152042 -0.0019896 0)
(-0.000954288 -0.0013434 0)
(-0.000530655 -0.000778285 0)
(-0.00023669 -0.000331221 0)
(-5.4258e-05 -4.53772e-05 0)
(-7.60003e-05 0.000143154 0)
(-0.000326791 0.000623961 0)
(-0.000715541 0.00126402 0)
(-0.00125821 0.00201782 0)
(-0.00196468 0.00284604 0)
(-0.00283893 0.00371544 0)
(-0.00388085 0.00459838 0)
(-0.00508714 0.00547222 0)
(-0.0064519 0.0063186 0)
(-0.00796708 0.00712285 0)
(-0.00962286 0.00787343 0)
(-0.0114079 0.0085614 0)
(-0.0133099 0.00918003 0)
(-0.0153152 0.00972441 0)
(-0.0174099 0.0101912 0)
(-0.0195792 0.0105782 0)
(-0.0218081 0.0108845 0)
(-0.0240816 0.0111099 0)
(-0.0263845 0.0112549 0)
(-0.0287015 0.0113207 0)
(-0.0310179 0.0113091 0)
(-0.033319 0.011222 0)
(-0.0355905 0.0110621 0)
(-0.0378186 0.0108319 0)
(-0.0399902 0.0105346 0)
(-0.0420923 0.0101732 0)
(-0.0441129 0.00975108 0)
(-0.0460404 0.0092718 0)
(-0.0478641 0.00873893 0)
(-0.0495738 0.00815617 0)
(-0.0511601 0.00752732 0)
(-0.0526143 0.00685626 0)
(-0.0539286 0.00614694 0)
(-0.0550958 0.00540339 0)
(-0.0561096 0.00462968 0)
(-0.0569645 0.00382998 0)
(-0.0576559 0.0030085 0)
(-0.0581799 0.00216953 0)
(-0.0585335 0.0013174 0)
(-0.0587147 0.000456529 0)
(-0.0587222 -0.000408611 0)
(-0.0585556 -0.00127349 0)
(-0.0582156 -0.00213352 0)
(-0.0577036 -0.00298406 0)
(-0.0570218 -0.00382043 0)
(-0.0561738 -0.00463789 0)
(-0.0551635 -0.00543171 0)
(-0.0539963 -0.0061971 0)
(-0.052678 -0.00692931 0)
(-0.0512158 -0.0076236 0)
(-0.0496174 -0.00827526 0)
(-0.0478916 -0.00887964 0)
(-0.0460482 -0.00943221 0)
(-0.0440975 -0.00992852 0)
(-0.0420509 -0.0103643 0)
(-0.0399204 -0.0107355 0)
(-0.037719 -0.0110383 0)
(-0.03546 -0.011269 0)
(-0.0331576 -0.0114245 0)
(-0.0308265 -0.0115018 0)
(-0.0284817 -0.0114986 0)
(-0.0261388 -0.011413 0)
(-0.0238135 -0.0112437 0)
(-0.0215216 -0.01099 0)
(-0.019279 -0.0106521 0)
(-0.0171014 -0.010231 0)
(-0.0150041 -0.00972879 0)
(-0.013002 -0.00914874 0)
(-0.0111094 -0.00849549 0)
(-0.00933936 -0.00777528 0)
(-0.00770404 -0.00699624 0)
(-0.00621408 -0.00616867 0)
(-0.00487847 -0.00530546 0)
(-0.00370416 -0.00442252 0)
(-0.00269578 -0.00353925 0)
(-0.00185517 -0.00267913 0)
(-0.00118081 -0.00187034 0)
(-0.000667103 -0.00114627 0)
(-0.0003026 -0.000545987 0)
(-7.00591e-05 -0.000114273 0)
(-9.22052e-05 0.000235963 0)
(-0.000394308 0.000902946 0)
(-0.000855406 0.00172958 0)
(-0.0014905 0.00266961 0)
(-0.0023079 0.00368238 0)
(-0.00330966 0.00473303 0)
(-0.00449381 0.00579215 0)
(-0.00585525 0.00683531 0)
(-0.00738645 0.00784246 0)
(-0.0090779 0.00879738 0)
(-0.0109184 0.00968715 0)
(-0.0128954 0.0105017 0)
(-0.0149953 0.0112332 0)
(-0.0172035 0.0118762 0)
(-0.0195048 0.0124265 0)
(-0.0218834 0.0128818 0)
(-0.0243234 0.0132406 0)
(-0.0268085 0.0135029 0)
(-0.0293225 0.0136692 0)
(-0.0318493 0.0137407 0)
(-0.034373 0.0137195 0)
(-0.0368779 0.013608 0)
(-0.039349 0.0134091 0)
(-0.0417713 0.013126 0)
(-0.0441308 0.0127622 0)
(-0.0464138 0.0123215 0)
(-0.0486074 0.0118078 0)
(-0.0506992 0.0112255 0)
(-0.0526776 0.0105786 0)
(-0.0545319 0.00987177 0)
(-0.056252 0.00910947 0)
(-0.0578285 0.00829638 0)
(-0.0592532 0.00743724 0)
(-0.0605182 0.00653689 0)
(-0.061617 0.00560027 0)
(-0.0625436 0.00463236 0)
(-0.063293 0.00363825 0)
(-0.0638611 0.0026231 0)
(-0.0642447 0.00159215 0)
(-0.0644416 0.000550699 0)
(-0.0644505 -0.000495856 0)
(-0.064271 -0.00154206 0)
(-0.0639036 -0.00258239 0)
(-0.0633499 -0.00361127 0)
(-0.0626125 -0.00462304 0)
(-0.0616948 -0.00561204 0)
(-0.0606014 -0.00657255 0)
(-0.0593378 -0.00749884 0)
(-0.0579103 -0.0083852 0)
(-0.0563265 -0.00922593 0)
(-0.0545948 -0.0100154 0)
(-0.0527244 -0.010748 0)
(-0.0507258 -0.0114184 0)
(-0.0486101 -0.0120212 0)
(-0.0463894 -0.0125513 0)
(-0.0440765 -0.0130039 0)
(-0.0416853 -0.0133744 0)
(-0.03923 -0.0136585 0)
(-0.0367257 -0.0138524 0)
(-0.0341882 -0.0139527 0)
(-0.0316335 -0.0139566 0)
(-0.0290781 -0.0138619 0)
(-0.0265389 -0.0136671 0)
(-0.0240328 -0.0133714 0)
(-0.0215768 -0.0129751 0)
(-0.0191876 -0.0124795 0)
(-0.0168819 -0.011887 0)
(-0.0146754 -0.0112016 0)
(-0.0125837 -0.0104286 0)
(-0.0106211 -0.00957532 0)
(-0.0088009 -0.00865112 0)
(-0.00713502 -0.00766773 0)
(-0.00563378 -0.00663967 0)
(-0.00430558 -0.00558464 0)
(-0.00315662 -0.00452403 0)
(-0.0021904 -0.00348333 0)
(-0.00140718 -0.00249273 0)
(-0.000803094 -0.00158747 0)
(-0.000368101 -0.000808161 0)
(-8.57515e-05 -0.000200529 0)
(-0.000108108 0.000346303 0)
(-0.000460633 0.00123001 0)
(-0.000993205 0.00226957 0)
(-0.00172002 0.00341846 0)
(-0.00264785 0.0046352 0)
(-0.00377682 0.00588376 0)
(-0.00510296 0.00713335 0)
(-0.00661929 0.00835808 0)
(-0.00831653 0.00953648 0)
(-0.0101835 0.010651 0)
(-0.0122077 0.0116875 0)
(-0.0143751 0.0126348 0)
(-0.0166708 0.0134843 0)
(-0.0190791 0.0142297 0)
(-0.0215837 0.0148664 0)
(-0.0241677 0.0153917 0)
(-0.0268142 0.0158039 0)
(-0.0295058 0.0161028 0)
(-0.0322254 0.0162891 0)
(-0.0349559 0.0163641 0)
(-0.0376805 0.0163303 0)
(-0.0403826 0.0161903 0)
(-0.0430462 0.0159474 0)
(-0.0456557 0.0156055 0)
(-0.048196 0.0151687 0)
(-0.0506527 0.0146412 0)
(-0.0530122 0.0140278 0)
(-0.0552614 0.0133334 0)
(-0.057388 0.012563 0)
(-0.0593807 0.0117218 0)
(-0.0612286 0.0108152 0)
(-0.0629221 0.0098487 0)
(-0.0644522 0.00882787 0)
(-0.0658108 0.00775842 0)
(-0.0669908 0.00664616 0)
(-0.067986 0.005497 0)
(-0.068791 0.00431694 0)
(-0.0694015 0.00311205 0)
(-0.0698142 0.00188854 0)
(-0.0700266 0.000652663 0)
(-0.0700373 -0.000589218 0)
(-0.069846 -0.00183066 0)
(-0.0694532 -0.00306515 0)
(-0.0688605 -0.0042861 0)
(-0.0680707 -0.00548686 0)
(-0.0670875 -0.00666073 0)
(-0.0659155 -0.00780098 0)
(-0.0645606 -0.00890087 0)
(-0.0630296 -0.00995366 0)
(-0.0613303 -0.0109527 0)
(-0.0594716 -0.0118912 0)
(-0.0574635 -0.0127628 0)
(-0.0553167 -0.013561 0)
(-0.0530432 -0.0142797 0)
(-0.0506556 -0.0149127 0)
(-0.0481676 -0.0154546 0)
(-0.0455938 -0.0158997 0)
(-0.0429492 -0.0162433 0)
(-0.0402499 -0.0164808 0)
(-0.0375125 -0.0166083 0)
(-0.0347539 -0.0166225 0)
(-0.0319917 -0.0165209 0)
(-0.0292438 -0.0163016 0)
(-0.026528 -0.0159641 0)
(-0.0238625 -0.0155084 0)
(-0.0212651 -0.0149361 0)
(-0.0187534 -0.0142502 0)
(-0.0163446 -0.0134549 0)
(-0.0140553 -0.0125567 0)
(-0.011901 -0.0115635 0)
(-0.00989629 -0.0104861 0)
(-0.00805453 -0.00933734 0)
(-0.00638748 -0.00813336 0)
(-0.00490512 -0.00689348 0)
(-0.00361531 -0.0056408 0)
(-0.00252339 -0.00440257 0)
(-0.00163145 -0.00321061 0)
(-0.000937404 -0.00210163 0)
(-0.00043259 -0.0011173 0)
(-0.000101183 -0.00030384 0)
(-0.000123634 0.000473738 0)
(-0.000525465 0.00160431 0)
(-0.00112829 0.00288305 0)
(-0.00194567 0.00426354 0)
(-0.00298292 0.00570385 0)
(-0.00423826 0.00716713 0)
(-0.0057057 0.00862156 0)
(-0.00737628 0.0100401 0)
(-0.00923888 0.0114001 0)
(-0.0112806 0.0126829 0)
(-0.0134874 0.0138733 0)
(-0.0158438 0.0149592 0)
(-0.0183336 0.0159313 0)
(-0.0209398 0.0167825 0)
(-0.0236451 0.017508 0)
(-0.0264314 0.0181044 0)
(-0.0292807 0.0185703 0)
(-0.0321748 0.0189051 0)
(-0.0350956 0.0191097 0)
(-0.038025 0.0191858 0)
(-0.0409452 0.0191358 0)
(-0.0438391 0.0189629 0)
(-0.0466896 0.0186711 0)
(-0.0494804 0.0182645 0)
(-0.0521956 0.0177478 0)
(-0.0548203 0.0171262 0)
(-0.0573399 0.016405 0)
(-0.0597408 0.0155898 0)
(-0.0620101 0.0146864 0)
(-0.0641359 0.013701 0)
(-0.0661069 0.0126396 0)
(-0.0679129 0.0115087 0)
(-0.0695444 0.0103148 0)
(-0.070993 0.00906445 0)
(-0.0722512 0.00776441 0)
(-0.0733124 0.00642154 0)
(-0.0741711 0.0050428 0)
(-0.0748228 0.00363527 0)
(-0.0752638 0.0022061 0)
(-0.0754916 0.000762598 0)
(-0.0755048 -0.00068787 0)
(-0.0753029 -0.00213783 0)
(-0.0748866 -0.00357971 0)
(-0.0742574 -0.00500587 0)
(-0.0734182 -0.00640861 0)
(-0.0723729 -0.00778014 0)
(-0.0711264 -0.00911268 0)
(-0.0696847 -0.0103984 0)
(-0.0680551 -0.0116295 0)
(-0.0662455 -0.0127982 0)
(-0.0642655 -0.0138969 0)
(-0.0621253 -0.0149179 0)
(-0.0598364 -0.0158539 0)
(-0.057411 -0.0166977 0)
(-0.0548627 -0.0174424 0)
(-0.0522056 -0.0180813 0)
(-0.049455 -0.0186083 0)
(-0.0466269 -0.0190177 0)
(-0.043738 -0.0193042 0)
(-0.0408057 -0.0194635 0)
(-0.037848 -0.0194916 0)
(-0.0348834 -0.0193857 0)
(-0.0319306 -0.0191437 0)
(-0.0290085 -0.0187648 0)
(-0.0261364 -0.0182493 0)
(-0.0233331 -0.0175989 0)
(-0.0206174 -0.0168167 0)
(-0.0180077 -0.0159078 0)
(-0.0155216 -0.0148791 0)
(-0.0131761 -0.0137397 0)
(-0.0109873 -0.0125011 0)
(-0.00896975 -0.0111777 0)
(-0.00713689 -0.00978677 0)
(-0.00550038 -0.0083492 0)
(-0.00406988 -0.00688957 0)
(-0.00285261 -0.0054366 0)
(-0.00185256 -0.00402349 0)
(-0.00106941 -0.00268804 0)
(-0.00049577 -0.00147268 0)
(-0.000116281 -0.000423816 0)
(-0.00013876 0.000617801 0)
(-0.000588701 0.00202483 0)
(-0.00126041 0.00356883 0)
(-0.00216697 0.00520367 0)
(-0.00331237 0.00688726 0)
(-0.00469295 0.00858222 0)
(-0.00630069 0.010256 0)
(-0.00812463 0.0118806 0)
(-0.0101517 0.0134326 0)
(-0.0123674 0.0148922 0)
(-0.0147557 0.0162435 0)
(-0.0172999 0.0174736 0)
(-0.0199823 0.0185725 0)
(-0.0227848 0.0195326 0)
(-0.0256886 0.0203487 0)
(-0.0286748 0.0210173 0)
(-0.0317241 0.0215366 0)
(-0.0348176 0.0219062 0)
(-0.0379359 0.0221271 0)
(-0.0410603 0.0222012 0)
(-0.0441722 0.0221314 0)
(-0.0472534 0.0219212 0)
(-0.0502862 0.021575 0)
(-0.0532536 0.0210977 0)
(-0.056139 0.0204945 0)
(-0.0589268 0.0197714 0)
(-0.0616017 0.0189343 0)
(-0.0641497 0.0179897 0)
(-0.0665573 0.0169442 0)
(-0.068812 0.0158048 0)
(-0.070902 0.0145785 0)
(-0.0728167 0.0132727 0)
(-0.0745464 0.0118947 0)
(-0.0760821 0.0104521 0)
(-0.077416 0.0089526 0)
(-0.0785414 0.00740408 0)
(-0.0794524 0.00581449 0)
(-0.0801442 0.00419192 0)
(-0.0806132 0.00254459 0)
(-0.0808566 0.000880822 0)
(-0.080873 -0.000790929 0)
(-0.0806617 -0.00246211 0)
(-0.0802236 -0.00412408 0)
(-0.0795601 -0.00576808 0)
(-0.0786743 -0.00738529 0)
(-0.0775701 -0.00896684 0)
(-0.0762527 -0.0105038 0)
(-0.0747282 -0.0119872 0)
(-0.0730041 -0.0134082 0)
(-0.071089 -0.0147579 0)
(-0.0689923 -0.0160275 0)
(-0.066725 -0.0172083 0)
(-0.0642989 -0.0182919 0)
(-0.0617268 -0.0192701 0)
(-0.0590227 -0.020135 0)
(-0.0562015 -0.020879 0)
(-0.053279 -0.0214951 0)
(-0.0502719 -0.0219768 0)
(-0.0471977 -0.0223182 0)
(-0.0440746 -0.0225141 0)
(-0.0409215 -0.0225602 0)
(-0.0377577 -0.0224531 0)
(-0.0346028 -0.0221905 0)
(-0.0314769 -0.0217714 0)
(-0.0284001 -0.021196 0)
(-0.0253925 -0.0204663 0)
(-0.022474 -0.0195856 0)
(-0.0196641 -0.0185595 0)
(-0.0169819 -0.0173956 0)
(-0.0144456 -0.0161036 0)
(-0.0120726 -0.0146962 0)
(-0.00987939 -0.0131888 0)
(-0.0078808 -0.0115999 0)
(-0.00609032 -0.00995169 0)
(-0.00451949 -0.00827001 0)
(-0.00317745 -0.00658486 0)
(-0.00207013 -0.00493056 0)
(-0.00119891 -0.00334579 0)
(-0.000557561 -0.00187348 0)
(-0.000131025 -0.000560042 0)
(-0.000153495 0.000778036 0)
(-0.000650372 0.00249057 0)
(-0.00138958 0.00432564 0)
(-0.00238388 0.00623753 0)
(-0.00363604 0.00818416 0)
(-0.00514058 0.0101279 0)
(-0.0068875 0.0120356 0)
(-0.00886379 0.0138788 0)
(-0.0110545 0.015633 0)
(-0.0134431 0.0172781 0)
(-0.016012 0.0187972 0)
(-0.018743 0.0201768 0)
(-0.0216169 0.0214066 0)
(-0.0246142 0.0224784 0)
(-0.027715 0.0233867 0)
(-0.0308991 0.0241279 0)
(-0.0341463 0.0247002 0)
(-0.0374365 0.0251032 0)
(-0.0407497 0.0253381 0)
(-0.0440661 0.0254071 0)
(-0.0473663 0.0253134 0)
(-0.0506313 0.0250612 0)
(-0.0538428 0.0246552 0)
(-0.056983 0.024101 0)
(-0.0600348 0.0234046 0)
(-0.0629817 0.0225725 0)
(-0.0658081 0.0216115 0)
(-0.0684994 0.020529 0)
(-0.0710416 0.0193325 0)
(-0.0734216 0.0180297 0)
(-0.0756274 0.0166286 0)
(-0.077648 0.0151375 0)
(-0.079473 0.0135648 0)
(-0.0810935 0.011919 0)
(-0.0825013 0.0102088 0)
(-0.0836893 0.00844313 0)
(-0.0846515 0.00663097 0)
(-0.0853829 0.00478148 0)
(-0.0858797 0.00290395 0)
(-0.086139 0.00100779 0)
(-0.0861593 -0.000897455 0)
(-0.08594 -0.00280211 0)
(-0.0854817 -0.00469638 0)
(-0.0847861 -0.0065704 0)
(-0.0838562 -0.00841419 0)
(-0.082696 -0.0102177 0)
(-0.0813109 -0.0119709 0)