/*--------------------------------*- C++ -*----------------------------------*\
| =========                 |                                                 |
| \\      /  F ield         | OpenFOAM: The Open Source CFD Toolbox           |
|  \\    /   O peration     | Version:  4.1                                   |
|   \\  /    A nd           | Web:      www.OpenFOAM.org                      |
|    \\/     M anipulation  |                                                 |
\*---------------------------------------------------------------------------*/
FoamFile
{
    version     2.0;
    format      ascii;
    class       volVectorField;
    location    "11.25";
    object      U;
}
// * * * * * * * * * * * * * * * * * * * * * * * * * * * * * * * * * * * * * //

dimensions      [0 1 -1 0 0 0 0];

internalField   nonuniform List<vector> 
400
(
(0.000200924 -0.000198066 0)
(-9.04166e-05 8.45313e-05 0)
(-0.00154451 0.000333309 0)
(-0.00375344 0.000516675 0)
(-0.00648059 0.000606125 0)
(-0.0093856 0.000636181 0)
(-0.0122422 0.000611755 0)
(-0.0148054 0.000537032 0)
(-0.0168462 0.000405821 0)
(-0.0181273 0.000216361 0)
(-0.0184412 -2.46274e-05 0)
(-0.0176508 -0.000294728 0)
(-0.0157415 -0.000555896 0)
(-0.0128714 -0.000757035 0)
(-0.00937566 -0.000848654 0)
(-0.00576438 -0.000791114 0)
(-0.00258839 -0.000586885 0)
(-0.000403691 -0.000257993 0)
(0.000559755 7.36003e-05 0)
(0.000317083 0.000302167 0)
(-8.92111e-05 8.1056e-05 0)
(-0.00206603 0.00193864 0)
(-0.00650029 0.00366781 0)
(-0.0124832 0.00490524 0)
(-0.0195061 0.00553653 0)
(-0.0268314 0.00565294 0)
(-0.0338987 0.00529332 0)
(-0.0401155 0.00447731 0)
(-0.0449337 0.00320391 0)
(-0.0478276 0.00150465 0)
(-0.0483718 -0.000522554 0)
(-0.0463198 -0.00268639 0)
(-0.0416964 -0.00470545 0)
(-0.0348791 -0.00623961 0)
(-0.0265998 -0.00696573 0)
(-0.0179313 -0.00665891 0)
(-0.0100358 -0.00532318 0)
(-0.00408871 -0.00319207 0)
(-0.000617183 -0.000938751 0)
(0.000178845 0.000592255 0)
(-0.000421388 0.00167445 0)
(-0.004383 0.00650361 0)
(-0.0118428 0.0105792 0)
(-0.0213014 0.0133754 0)
(-0.0320343 0.014742 0)
(-0.0430219 0.01482 0)
(-0.0534768 0.0136867 0)
(-0.0625699 0.0113902 0)
(-0.0695442 0.00796792 0)
(-0.0736947 0.00354227 0)
(-0.0744669 -0.00161191 0)
(-0.0715477 -0.00702254 0)
(-0.0649712 -0.0120322 0)
(-0.0552176 -0.0158694 0)
(-0.043225 -0.0178016 0)
(-0.0304028 -0.0173197 0)
(-0.0183258 -0.0144012 0)
(-0.00868579 -0.00957261 0)
(-0.00234511 -0.00420708 0)
(-1.35786e-05 -4.95302e-06 0)
(-0.000747873 0.00445658 0)
(-0.00666111 0.0134835 0)
(-0.0170226 0.0204853 0)
(-0.029681 0.0250491 0)
(-0.0437067 0.0271323 0)
(-0.0578579 0.0269688 0)
(-0.0712055 0.0246933 0)
(-0.0827752 0.0203936 0)
(-0.0916864 0.014164 0)
(-0.0971202 0.00624127 0)
(-0.0984214 -0.00289416 0)
(-0.0951847 -0.0124554 0)
(-0.0873675 -0.0213616 0)
(-0.0754154 -0.0283381 0)
(-0.0603114 -0.0321377 0)
(-0.0436693 -0.0318404 0)
(-0.0274174 -0.0272816 0)
(-0.0138386 -0.0192287 0)
(-0.00427795 -0.00977531 0)
(-0.000209197 -0.00151546 0)
(-0.00102604 0.00839641 0)
(-0.00869835 0.0228415 0)
(-0.0217045 0.0333284 0)
(-0.0372553 0.0398292 0)
(-0.0542276 0.0425783 0)
(-0.0712006 0.0419752 0)
(-0.0871659 0.0382454 0)
(-0.101074 0.031529 0)
(-0.111983 0.0219808 0)
(-0.118994 0.00994718 0)
(-0.121346 -0.00389784 0)
(-0.118487 -0.0184636 0)
(-0.110187 -0.0322363 0)
(-0.0967069 -0.0433803 0)
(-0.0789148 -0.0500016 0)
(-0.0585139 -0.0505649 0)
(-0.0377718 -0.0445324 0)
(-0.0197188 -0.0327552 0)
(-0.00641304 -0.0180466 0)
(-0.000389869 -0.00403295 0)
(-0.00126061 0.0133059 0)
(-0.0104329 0.0342309 0)
(-0.0257192 0.048686 0)
(-0.0437704 0.057259 0)
(-0.063299 0.060632 0)
(-0.0827531 0.0594586 0)
(-0.101099 0.0540996 0)
(-0.117273 0.0447563 0)
(-0.130322 0.0316294 0)
(-0.1393 0.015135 0)
(-0.143334 -0.00391904 0)
(-0.141675 -0.0242048 0)
(-0.133803 -0.0438182 0)
(-0.119638 -0.0603372 0)
(-0.099742 -0.0710772 0)
(-0.075731 -0.0736033 0)
(-0.0501353 -0.0666228 0)
(-0.0268752 -0.050753 0)
(-0.00901983 -0.0294644 0)
(-0.000605956 -0.00767355 0)
(-0.00144113 0.0190249 0)
(-0.0117951 0.0473276 0)
(-0.0289011 0.0661724 0)
(-0.0489602 0.0769521 0)
(-0.0705596 0.0809504 0)
(-0.0920669 0.0791651 0)
(-0.112472 0.072141 0)
(-0.130753 0.060149 0)
(-0.145999 0.0434092 0)
(-0.157258 0.0223447 0)
(-0.163568 -0.00219789 0)
(-0.163966 -0.0287671 0)
(-0.15758 -0.0551694 0)
(-0.143851 -0.0784293 0)
(-0.122814 -0.094957 0)
(-0.0957228 -0.101087 0)
(-0.0651415 -0.0942208 0)
(-0.0359028 -0.0741771 0)
(-0.01242 -0.044844 0)
(-0.000906717 -0.0127631 0)
(-0.00156235 0.0253328 0)
(-0.0127296 0.0616855 0)
(-0.0311048 0.0852445 0)
(-0.0525611 0.0983428 0)
(-0.0755988 0.102998 0)
(-0.0985571 0.100639 0)
(-0.120493 0.0920478 0)
(-0.140484 0.0775768 0)
(-0.15772 0.0574377 0)
(-0.171308 0.0319885 0)
(-0.180258 0.00199822 0)
(-0.183446 -0.0311138 0)
(-0.179655 -0.0650359 0)
(-0.16777 -0.096374 0)
(-0.147087 -0.120624 0)
(-0.118125 -0.1326 0)
(-0.0830369 -0.127703 0)
(-0.0473178 -0.104033 0)
(-0.0169761 -0.0652462 0)
(-0.00135909 -0.0197969 0)
(-0.00162149 0.0320026 0)
(-0.0132032 0.0768254 0)
(-0.0322261 0.105295 0)
(-0.0543518 0.120765 0)
(-0.0780252 0.126099 0)
(-0.101607 0.123237 0)
(-0.124259 0.113261 0)
(-0.145215 0.0966257 0)
(-0.163833 0.0735195 0)
(-0.179365 0.044174 0)
(-0.190904 0.00916659 0)
(-0.197279 -0.0302919 0)
(-0.197035 -0.0720086 0)
(-0.188531 -0.112436 0)
(-0.170201 -0.146339 0)
(-0.141435 -0.166904 0)
(-0.103329 -0.166828 0)
(-0.0613575 -0.14117 0)
(-0.0230497 -0.0919497 0)
(-0.00204503 -0.029491 0)
(-0.00162756 0.0387841 0)
(-0.0132453 0.092207 0)
(-0.032271 0.125613 0)
(-0.0542501 0.143391 0)
(-0.077592 0.149355 0)
(-0.100731 0.14603 0)
(-0.122973 0.134871 0)
(-0.143763 0.116471 0)
(-0.162694 0.0910015 0)
(-0.179265 0.0585361 0)
(-0.19278 0.019375 0)
(-0.202197 -0.025645 0)
(-0.20602 -0.0747208 0)
(-0.202251 -0.12454 0)
(-0.188516 -0.169563 0)
(-0.162803 -0.201598 0)
(-0.12445 -0.210183 0)
(-0.0777359 -0.185769 0)
(-0.0309677 -0.126222 0)
(-0.00307816 -0.0427761 0)
(-0.00161792 0.045509 0)
(-0.0129939 0.107372 0)
(-0.0314237 0.145506 0)
(-0.052403 0.165325 0)
(-0.0743183 0.171712 0)
(-0.0957481 0.167849 0)
(-0.116183 0.155647 0)
(-0.13534 0.135881 0)
(-0.153108 0.108743 0)
(-0.16932 0.0741501 0)
(-0.183617 0.0320878 0)
(-0.195271 -0.0170952 0)
(-0.202996 -0.0722319 0)
(-0.204736 -0.130688 0)
(-0.197587 -0.187271 0)
(-0.178155 -0.233124 0)
(-0.143529 -0.254776 0)
(-0.0953121 -0.236732 0)
(-0.0409219 -0.168965 0)
(-0.0046163 -0.0608084 0)
(-0.00166239 0.0520494 0)
(-0.0127624 0.121884 0)
(-0.0301564 0.164243 0)
(-0.0493228 0.185549 0)
(-0.068639 0.191928 0)
(-0.0869499 0.187284 0)
(-0.10399 0.174067 0)
(-0.119819 0.15328 0)
(-0.134671 0.125181 0)
(-0.14877 0.0895651 0)
(-0.162183 0.0461219 0)
(-0.174635 -0.00532394 0)
(-0.185292 -0.0643925 0)
(-0.1924 -0.129513 0)
(-0.193013 -0.196575 0)
(-0.182746 -0.257198 0)
(-0.156477 -0.295935 0)
(-0.111774 -0.291008 0)
(-0.0527663 -0.220098 0)
(-0.00687025 -0.0849 0)
(-0.0019228 0.0587298 0)
(-0.0130986 0.135805 0)
(-0.0292366 0.181447 0)
(-0.0458538 0.2032 0)
(-0.0613449 0.208778 0)
(-0.0750343 0.202849 0)
(-0.0869841 0.188473 0)
(-0.0976904 0.166898 0)
(-0.107757 0.138482 0)
(-0.117825 0.102941 0)
(-0.12841 0.0597247 0)
(-0.139755 0.00818478 0)
(-0.151645 -0.0520944 0)
(-0.162947 -0.120809 0)
(-0.17127 -0.195543 0)
(-0.17195 -0.269726 0)
(-0.158411 -0.327851 0)
(-0.123465 -0.343267 0)
(-0.06565 -0.277811 0)
(-0.0100873 -0.116391 0)
(-0.00264993 0.0658196 0)
(-0.0149919 0.149033 0)
(-0.0299779 0.196478 0)
(-0.0433746 0.217101 0)
(-0.0536612 0.220734 0)
(-0.0610524 0.212812 0)
(-0.0660636 0.19703 0)
(-0.069755 0.17484 0)
(-0.0731104 0.146695 0)
(-0.0771763 0.112259 0)
(-0.0828792 0.0708158 0)
(-0.0909617 0.0213644 0)
(-0.101887 -0.0371674 0)
(-0.115336 -0.105688 0)
(-0.130015 -0.183756 0)
(-0.141834 -0.267756 0)
(-0.144197 -0.344553 0)
(-0.125448 -0.386079 0)
(-0.07751 -0.337685 0)
(-0.0144719 -0.156159 0)
(-0.00439218 0.0755966 0)
(-0.0197354 0.163278 0)
(-0.0336572 0.209869 0)
(-0.042917 0.226604 0)
(-0.0462099 0.226442 0)
(-0.0452924 0.215441 0)
(-0.04127 0.197839 0)
(-0.0359173 0.17513 0)
(-0.0305812 0.147778 0)
(-0.0266747 0.11538 0)
(-0.0254613 0.0771097 0)
(-0.0281038 0.0317585 0)
(-0.0356965 -0.0221659 0)
(-0.0487659 -0.0864839 0)
(-0.0674658 -0.162569 0)
(-0.0890103 -0.250309 0)
(-0.108618 -0.341251 0)
(-0.111549 -0.410956 0)
(-0.0843599 -0.392343 0)
(-0.0199765 -0.204193 0)
(-0.00800503 0.0882939 0)
(-0.0299366 0.177641 0)
(-0.0422473 0.219599 0)
(-0.0453335 0.229024 0)
(-0.0384116 0.223059 0)
(-0.0260706 0.208051 0)
(-0.0101258 0.188465 0)
(0.00677858 0.165568 0)
(0.0230152 0.139683 0)
(0.0368921 0.1103 0)
(0.0469272 0.0765266 0)
(0.0516633 0.0370949 0)
(0.0495071 -0.00963634 0)
(0.0392107 -0.0659314 0)
(0.0191235 -0.134415 0)
(-0.00965856 -0.218149 0)
(-0.0459239 -0.314776 0)
(-0.0741343 -0.408944 0)
(-0.0795494 -0.430489 0)
(-0.0257299 -0.257274 0)
(-0.0146202 0.114335 0)
(-0.0452138 0.197714 0)
(-0.0515897 0.226893 0)
(-0.0432115 0.222563 0)
(-0.0205798 0.207622 0)
(0.00752971 0.187487 0)
(0.0387888 0.165938 0)
(0.0697568 0.143499 0)
(0.0987482 0.120043 0)
(0.123982 0.0948614 0)
(0.143943 0.0669989 0)
(0.15706 0.0352408 0)
(0.161458 -0.00198136 0)
(0.155393 -0.0468959 0)
(0.136 -0.102637 0)
(0.102678 -0.174236 0)
(0.0520006 -0.265301 0)
(-0.00252378 -0.373568 0)
(-0.0516939 -0.439168 0)
(-0.0284955 -0.309978 0)
(-0.02562 0.141874 0)
(-0.0655905 0.209197 0)
(-0.0479611 0.216803 0)
(-0.0145281 0.195597 0)
(0.0342123 0.17193 0)
(0.0841188 0.148524 0)
(0.133846 0.12712 0)
(0.180026 0.107225 0)
(0.221605 0.0880945 0)
(0.257237 0.0688534 0)
(0.285761 0.0485496 0)
(0.30581 0.0261589 0)
(0.315573 0.00039457 0)
(0.313083 -0.0304799 0)
(0.294838 -0.0692944 0)
(0.258769 -0.121073 0)
(0.1971 -0.193241 0)
(0.118775 -0.296435 0)
(0.0178192 -0.395479 0)
(-0.0171682 -0.338991 0)
(-0.018749 0.214577 0)
(-0.0197969 0.21533 0)
(0.0566394 0.181584 0)
(0.12871 0.140397 0)
(0.205613 0.110534 0)
(0.273831 0.0882764 0)
(0.335439 0.0710205 0)
(0.389022 0.0570651 0)
(0.434928 0.0449965 0)
(0.472898 0.0338575 0)
(0.502542 0.0228311 0)
(0.523079 0.0112124 0)
(0.533211 -0.00182966 0)
(0.531192 -0.0172802 0)
(0.513866 -0.0371419 0)
(0.47826 -0.0648327 0)
(0.414662 -0.108588 0)
(0.323986 -0.186722 0)
(0.173199 -0.296558 0)
(0.0429819 -0.335041 0)
(0.211328 0.129534 0)
(0.297269 0.100932 0)
(0.451168 0.0674644 0)
(0.543292 0.0443177 0)
(0.618081 0.0290897 0)
(0.673998 0.019853 0)
(0.717943 0.0138494 0)
(0.752551 0.00980287 0)
(0.779793 0.00682523 0)
(0.80067 0.00442351 0)
(0.815618 0.00226825 0)
(0.824592 0.000140161 0)
(0.827098 -0.00218302 0)
(0.822141 -0.00489013 0)
(0.807849 -0.00852787 0)
(0.781247 -0.013694 0)
(0.734304 -0.0229 0)
(0.658599 -0.0407267 0)
(0.498164 -0.0743664 0)
(0.288347 -0.136213 0)
)
;

boundaryField
{
    movingWall
    {
        type            fixedValue;
        value           uniform (1 0 0);
    }
    fixedWalls
    {
        type            noSlip;
    }
    frontAndBack
    {
        type            empty;
    }
}


// ************************************************************************* //
