/*--------------------------------*- C++ -*----------------------------------*\
| =========                 |                                                 |
| \\      /  F ield         | OpenFOAM: The Open Source CFD Toolbox           |
|  \\    /   O peration     | Version:  4.1                                   |
|   \\  /    A nd           | Web:      www.OpenFOAM.org                      |
|    \\/     M anipulation  |                                                 |
\*---------------------------------------------------------------------------*/
FoamFile
{
    version     2.0;
    format      ascii;
    class       volScalarField;
    location    "0.0137";
    object      p;
}
// * * * * * * * * * * * * * * * * * * * * * * * * * * * * * * * * * * * * * //

dimensions      [1 -1 -2 0 0 0 0];

internalField   nonuniform List<scalar> 
441
(
100000
99999.9
99999.8
99999.7
99999.8
99999.5
99999.8
99999.9
99999.9
100001
100001
100001
100001
100001
100001
100001
100001
100001
100001
100001
100000
100000
100000
100000
100000
100000
100000
100000
100000
100000
100000
100000
100000
100000
100001
100000
100001
100000
100001
100000
100001
100000
100000
99999.9
100000
99999.9
100000
99999.9
100000
100000
100000
100000
100000
100001
100001
100001
100001
100001
100001
100001
100000
100001
100000
100000
100000
100000
100000
100000
100000
100000
100000
100000
100000
100000
100000
100000
100001
100000
100001
100000
100001
100000
100001
100000
100001
99999.8
100000
99999.8
99999.9
99999.9
100000
100000
100000
100000
100000
100000
100000
100001
100001
100001
100001
100001
100000
100001
100000
99999.5
99999.9
99999.8
99999.9
99999.9
99999.9
100000
100000
100000
100000
100000
100000
100000
100001
100000
100001
100000
100001
100000
100001
100000
99999.3
99999.5
99999.5
99999.5
99999.6
99999.7
99999.8
99999.9
100000
100000
100000
100000
100000
100001
100001
100001
100001
100001
100000
100001
99999.8
99999.5
99999.5
99999.4
99999.5
99999.5
99999.6
99999.7
99999.8
99999.9
100000
100000
100000
100000
100001
100001
100001
100001
100001
100000
100001
100000
99999.1
99999
99999
99999
99999.1
99999.2
99999.3
99999.5
99999.7
99999.9
100000
100000
100001
100001
100001
100001
100001
100001
100001
100002
100000
99999
99998.8
99998.8
99998.9
99998.9
99999
99999.1
99999.3
99999.5
99999.7
99999.9
100000
100000
100001
100001
100001
100001
100001
100001
100001
99999.7
99998.3
99998.1
99998.1
99998.2
99998.2
99998.5
99998.6
99998.9
99999.1
99999.4
99999.7
100000
100000
100001
100001
100002
100002
100002
100001
100002
100001
99998.1
99997.9
99997.8
99997.9
99997.9
99998.1
99998.2
99998.5
99998.7
99999
99999.4
99999.8
100000
100001
100001
100002
100001
100002
100001
100002
100001
99996.9
99996.8
99996.7
99996.9
99996.9
99997.3
99997.4
99997.8
99998.1
99998.5
99999
99999.5
100000
100001
100001
100002
100002
100003
100002
100003
99999.6
99996.8
99996.7
99996.4
99996.7
99996.5
99996.9
99996.8
99997.2
99997.4
99997.8
99998.3
99998.8
99999.5
100000
100001
100002
100002
100003
100002
100004
99999.7
99994.8
99994.9
99994.5
99995.2
99995
99995.7
99995.7
99996.2
99996.6
99997.1
99997.7
99998.2
99999.2
99999.8
100001
100002
100004
100004
100005
100005
99998.5
99995
99995.1
99994.4
99995.1
99994.6
99995.2
99995
99995.5
99995.7
99996.2
99996.7
99997.1
99998.2
99998.6
100000
100001
100003
100004
100003
100005
99991.7
99990.7
99992.1
99991.1
99993
99992.5
99993.7
99993.6
99994.4
99994.7
99995.3
99996
99996.4
99997.8
99998
100000
100001
100005
100005
100014
100008
100027
99991.5
99993.1
99991.6
99993.4
99992.3
99993.5
99993.1
99993.8
99994
99994.5
99995.2
99995.4
99996.7
99996.7
99999
99999.2
100004
100005
100013
100015
100029
99980.5
99988.2
99986.2
99991
99990.1
99992.4
99992.1
99993.3
99993.6
99994.2
99995
99995.3
99996.8
99996.8
99999.8
99999.7
100006
100007
100020
100023
100041
99981.9
99990.9
99988.3
99992.5
99991
99992.9
99992.4
99993.4
99993.6
99994.1
99994.9
99995
99996.6
99996.5
99999.6
99999.6
100006
100007
100022
100027
100049
99940.5
99984.5
99983.2
99993.2
99991.5
99994.3
99993.5
99994.4
99994.4
99994.8
99995.5
99995.6
99997.3
99997.3
100001
100001
100010
100012
100035
100045
100103
)
;

boundaryField
{
    movingWall
    {
        type            zeroGradient;
    }
    fixedWalls
    {
        type            zeroGradient;
    }
    frontAndBack
    {
        type            empty;
    }
}


// ************************************************************************* //
