/*--------------------------------*- C++ -*----------------------------------*\
| =========                 |                                                 |
| \\      /  F ield         | OpenFOAM: The Open Source CFD Toolbox           |
|  \\    /   O peration     | Version:  4.1                                   |
|   \\  /    A nd           | Web:      www.OpenFOAM.org                      |
|    \\/     M anipulation  |                                                 |
\*---------------------------------------------------------------------------*/
FoamFile
{
    version     2.0;
    format      ascii;
    class       volVectorField;
    location    "2.75";
    object      U;
}
// * * * * * * * * * * * * * * * * * * * * * * * * * * * * * * * * * * * * * //

dimensions      [0 1 -1 0 0 0 0];

internalField   nonuniform List<vector> 
400
(
(0.000109067 -0.000106486 0)
(-0.00021887 0.000109667 0)
(-0.00138693 0.000286364 0)
(-0.00305987 0.000408042 0)
(-0.0050561 0.000458724 0)
(-0.00712792 0.000465057 0)
(-0.00912106 0.000433997 0)
(-0.0108822 0.00037254 0)
(-0.0122812 0.000279693 0)
(-0.0131863 0.000155126 0)
(-0.013479 9.37241e-07 0)
(-0.0130697 -0.000173331 0)
(-0.0119257 -0.000349458 0)
(-0.010107 -0.000499287 0)
(-0.00777812 -0.000591643 0)
(-0.00523285 -0.000593837 0)
(-0.00282013 -0.000494999 0)
(-0.000962567 -0.000288929 0)
(0.000102119 -4.46612e-05 0)
(0.00018823 0.00017617 0)
(-0.000105636 0.000211381 0)
(-0.00166139 0.0016089 0)
(-0.00494082 0.00281399 0)
(-0.00924297 0.0036208 0)
(-0.0141883 0.00397921 0)
(-0.0192575 0.00397464 0)
(-0.0240836 0.00365988 0)
(-0.0283044 0.00307328 0)
(-0.0316072 0.00222886 0)
(-0.0336926 0.00114411 0)
(-0.0343053 -0.00014021 0)
(-0.0332674 -0.00153747 0)
(-0.0305325 -0.00290578 0)
(-0.0262509 -0.00405109 0)
(-0.0207924 -0.00476024 0)
(-0.0147841 -0.00484015 0)
(-0.0089701 -0.0042089 0)
(-0.00422751 -0.00290658 0)
(-0.00106635 -0.00128766 0)
(3.54957e-05 0.000129328 0)
(-0.000321217 0.00143554 0)
(-0.00317117 0.00495019 0)
(-0.00842304 0.0077513 0)
(-0.0149906 0.00956386 0)
(-0.0223521 0.0103422 0)
(-0.0298074 0.0102362 0)
(-0.036854 0.00935845 0)
(-0.042992 0.00779235 0)
(-0.0477862 0.00558491 0)
(-0.0508237 0.00279578 0)
(-0.051753 -0.000458412 0)
(-0.0503268 -0.00395903 0)
(-0.046471 -0.00736501 0)
(-0.0403708 -0.0102238 0)
(-0.0325074 -0.01204 0)
(-0.0237195 -0.0123744 0)
(-0.0150248 -0.0110273 0)
(-0.00766421 -0.0081082 0)
(-0.00240022 -0.00432419 0)
(-0.000119686 -0.000684249 0)
(-0.000517368 0.00339499 0)
(-0.00457198 0.00980509 0)
(-0.011646 0.014581 0)
(-0.0202439 0.017546 0)
(-0.0297168 0.0187479 0)
(-0.0392258 0.0184336 0)
(-0.048187 0.0167898 0)
(-0.056015 0.0139502 0)
(-0.0621958 0.00999784 0)
(-0.0662303 0.00503743 0)
(-0.0676766 -0.000730855 0)
(-0.0661961 -0.00693913 0)
(-0.0616352 -0.0130136 0)
(-0.054139 -0.0181874 0)
(-0.0442143 -0.0216034 0)
(-0.0328459 -0.022483 0)
(-0.0212999 -0.0204259 0)
(-0.0112318 -0.0155671 0)
(-0.00373896 -0.00897086 0)
(-0.000252815 -0.0021436 0)
(-0.000679672 0.00605524 0)
(-0.0058232 0.0161399 0)
(-0.0145883 0.0232725 0)
(-0.0250731 0.0275305 0)
(-0.0365086 0.0291572 0)
(-0.0479417 0.0285461 0)
(-0.0587432 0.0259799 0)
(-0.0682799 0.0216448 0)
(-0.0759864 0.0156507 0)
(-0.0812877 0.00813196 0)
(-0.083635 -0.000643645 0)
(-0.0825518 -0.0101661 0)
(-0.0777285 -0.0196134 0)
(-0.0691732 -0.0278507 0)
(-0.0573252 -0.0335559 0)
(-0.0432621 -0.0354651 0)
(-0.028517 -0.0328212 0)
(-0.015292 -0.0256794 0)
(-0.00518258 -0.0154659 0)
(-0.000363488 -0.00427857 0)
(-0.00082646 0.00931811 0)
(-0.00697762 0.0237955 0)
(-0.0173359 0.0336472 0)
(-0.0296144 0.0393365 0)
(-0.0429377 0.0414097 0)
(-0.0562628 0.0404666 0)
(-0.0689472 0.0369127 0)
(-0.0803417 0.0309838 0)
(-0.0898536 0.0227935 0)
(-0.0968369 0.0124659 0)
(-0.100615 0.000289513 0)
(-0.100519 -0.0131246 0)
(-0.095995 -0.026719 0)
(-0.086796 -0.0389491 0)
(-0.0731678 -0.0479027 0)
(-0.056192 -0.0516184 0)
(-0.0376655 -0.0487205 0)
(-0.0204983 -0.0389795 0)
(-0.00702493 -0.0241657 0)
(-0.000499405 -0.0071662 0)
(-0.000964164 0.0131568 0)
(-0.00807401 0.032722 0)
(-0.0199584 0.0456559 0)
(-0.0339651 0.0529329 0)
(-0.049128 0.0555112 0)
(-0.0643416 0.0542631 0)
(-0.0789815 0.049747 0)
(-0.0924166 0.0422415 0)
(-0.104053 0.0318276 0)
(-0.113185 0.018559 0)
(-0.118999 0.00266854 0)
(-0.120591 -0.0152077 0)
(-0.117079 -0.0338262 0)
(-0.107836 -0.0512156 0)
(-0.0927489 -0.0647422 0)
(-0.072738 -0.071472 0)
(-0.0497748 -0.069009 0)
(-0.0276048 -0.0564667 0)
(-0.00961725 -0.0358428 0)
(-0.000707183 -0.0110948 0)
(-0.00110032 0.0175431 0)
(-0.00914353 0.0428599 0)
(-0.0224996 0.0592235 0)
(-0.0381591 0.0682443 0)
(-0.0550785 0.0714109 0)
(-0.0721184 0.0699401 0)
(-0.0887054 0.0645776 0)
(-0.104264 0.0556355 0)
(-0.118234 0.0431191 0)
(-0.129882 0.0269342 0)
(-0.138271 0.00715732 0)
(-0.142259 -0.015664 0)
(-0.140595 -0.0401984 0)
(-0.132163 -0.0640887 0)
(-0.116307 -0.0838887 0)
(-0.0935208 -0.0953948 0)
(-0.0656974 -0.0946377 0)
(-0.0373903 -0.0794316 0)
(-0.013376 -0.0516218 0)
(-0.00105075 -0.0165385 0)
(-0.00124074 0.0224776 0)
(-0.0102062 0.0541823 0)
(-0.0249703 0.0742887 0)
(-0.0421576 0.0851765 0)
(-0.06065 0.0890028 0)
(-0.0793027 0.0874091 0)
(-0.0976238 0.0813706 0)
(-0.115135 0.0712261 0)
(-0.131353 0.056863 0)
(-0.145572 0.0379603 0)
(-0.156793 0.0143268 0)
(-0.163697 -0.0137181 0)
(-0.1647 -0.0449094 0)
(-0.158169 -0.0766365 0)
(-0.142748 -0.104666 0)
(-0.11816 -0.123304 0)
(-0.0857454 -0.126359 0)
(-0.0505016 -0.109339 0)
(-0.0187686 -0.0730112 0)
(-0.0016144 -0.0242231 0)
(-0.00139446 0.0279544 0)
(-0.0112927 0.0666324 0)
(-0.0273802 0.0907204 0)
(-0.045883 0.10351 0)
(-0.065597 0.107998 0)
(-0.0854 0.106337 0)
(-0.104908 0.0997867 0)
(-0.123781 0.0887145 0)
(-0.141669 0.0728619 0)
(-0.157969 0.0516205 0)
(-0.171737 0.0244361 0)
(-0.181615 -0.00874166 0)
(-0.185845 -0.0469117 0)
(-0.182376 -0.0874603 0)
(-0.169112 -0.125593 0)
(-0.144672 -0.154146 0)
(-0.109176 -0.16413 0)
(-0.0671876 -0.147398 0)
(-0.0262952 -0.101761 0)
(-0.00252203 -0.0351546 0)
(-0.00158916 0.0340338 0)
(-0.0124786 0.0802049 0)
(-0.0297776 0.108374 0)
(-0.0492628 0.122917 0)
(-0.0696171 0.127897 0)
(-0.0897776 0.126079 0)
(-0.109489 0.119075 0)
(-0.128598 0.107294 0)
(-0.14694 0.0903348 0)
(-0.164118 0.0672809 0)
(-0.179393 0.0371691 0)
(-0.191589 -0.000526224 0)
(-0.199037 -0.0452749 0)
(-0.199535 -0.0948156 0)
(-0.190415 -0.144272 0)
(-0.169019 -0.18545 0)
(-0.133588 -0.206391 0)
(-0.0868389 -0.193862 0)
(-0.0363908 -0.139567 0)
(-0.00395487 -0.05067 0)
(-0.00187424 0.0407621 0)
(-0.0139456 0.0948111 0)
(-0.0323487 0.126935 0)
(-0.0523491 0.142802 0)
(-0.0724833 0.147847 0)
(-0.0918244 0.145548 0)
(-0.110276 0.137951 0)
(-0.127926 0.125539 0)
(-0.144859 0.107802 0)
(-0.160988 0.0835532 0)
(-0.175942 0.0514473 0)
(-0.188966 0.0104533 0)
(-0.198811 -0.0395286 0)
(-0.203512 -0.0969801 0)
(-0.200239 -0.157633 0)
(-0.185227 -0.213204 0)
(-0.154526 -0.249383 0)
(-0.107376 -0.247017 0)
(-0.0491733 -0.187407 0)
(-0.00616272 -0.0724075 0)
(-0.00238378 0.0485543 0)
(-0.0160499 0.110704 0)
(-0.0354369 0.146256 0)
(-0.0553066 0.162515 0)
(-0.0740284 0.166769 0)
(-0.0909762 0.1633 0)
(-0.106263 0.154676 0)
(-0.120305 0.141478 0)
(-0.13349 0.123157 0)
(-0.146133 0.098341 0)
(-0.158361 0.0653985 0)
(-0.170032 0.0228544 0)
(-0.180607 -0.0300745 0)
(-0.188762 -0.0929177 0)
(-0.192097 -0.162736 0)
(-0.186314 -0.232488 0)
(-0.165678 -0.287118 0)
(-0.124728 -0.302253 0)
(-0.0639453 -0.244534 0)
(-0.00944502 -0.102184 0)
(-0.00333007 0.0576408 0)
(-0.0195233 0.127709 0)
(-0.0397973 0.165622 0)
(-0.0586395 0.18078 0)
(-0.0742899 0.182974 0)
(-0.0867979 0.177338 0)
(-0.0965933 0.167026 0)
(-0.104553 0.152725 0)
(-0.111419 0.133909 0)
(-0.117965 0.109132 0)
(-0.124866 0.0766189 0)
(-0.132669 0.0345892 0)
(-0.141699 -0.01834 0)
(-0.151563 -0.0828382 0)
(-0.160905 -0.157789 0)
(-0.165742 -0.238734 0)
(-0.159818 -0.312272 0)
(-0.132792 -0.351702 0)
(-0.0784948 -0.307109 0)
(-0.0140548 -0.141414 0)
(-0.00521474 0.070123 0)
(-0.0253364 0.147223 0)
(-0.0460126 0.185217 0)
(-0.0623117 0.196587 0)
(-0.0724979 0.194704 0)
(-0.0779468 0.185461 0)
(-0.0795461 0.172567 0)
(-0.0788045 0.156728 0)
(-0.0768311 0.137453 0)
(-0.0748564 0.1133 0)
(-0.0740569 0.0824784 0)
(-0.0756124 0.043072 0)
(-0.0806904 -0.0067056 0)
(-0.0899057 -0.0684898 0)
(-0.103393 -0.143039 0)
(-0.11833 -0.229325 0)
(-0.129839 -0.318136 0)
(-0.123866 -0.385363 0)
(-0.0882704 -0.367444 0)
(-0.0199581 -0.190513 0)
(-0.00881703 0.0858211 0)
(-0.0356702 0.167582 0)
(-0.0551969 0.202182 0)
(-0.0659066 0.206464 0)
(-0.0665014 0.198416 0)
(-0.0610216 0.184371 0)
(-0.0509586 0.168336 0)
(-0.0386205 0.150857 0)
(-0.0254017 0.131421 0)
(-0.01288 0.10863 0)
(-0.00256956 0.080779 0)
(0.00390534 0.0459882 0)
(0.00471583 0.0023258 0)
(-0.00161606 -0.0524032 0)
(-0.0168374 -0.120393 0)
(-0.0398063 -0.20397 0)
(-0.0690327 -0.299867 0)
(-0.0890805 -0.392316 0)
(-0.0857808 -0.412969 0)
(-0.0262159 -0.246281 0)
(-0.0151759 0.114562 0)
(-0.0496824 0.19339 0)
(-0.0622951 0.216709 0)
(-0.0607812 0.207688 0)
(-0.045221 0.190398 0)
(-0.0237302 0.170377 0)
(0.00178958 0.151061 0)
(0.0283175 0.132386 0)
(0.0544422 0.113571 0)
(0.0785005 0.0932221 0)
(0.0989214 0.0697507 0)
(0.113924 0.0414486 0)
(0.121329 0.00647406 0)
(0.119084 -0.0374366 0)
(0.104087 -0.0931863 0)
(0.0757035 -0.16536 0)
(0.0306798 -0.256795 0)
(-0.0172134 -0.364538 0)
(-0.05886 -0.429083 0)
(-0.0294318 -0.302798 0)
(-0.0256593 0.143628 0)
(-0.0673784 0.208843 0)
(-0.0535549 0.212315 0)
(-0.0249955 0.187398 0)
(0.018048 0.161594 0)
(0.0621641 0.137776 0)
(0.106558 0.117468 0)
(0.148384 0.0997845 0)
(0.186959 0.0835405 0)
(0.221132 0.0673983 0)
(0.249752 0.0499724 0)
(0.271288 0.0298841 0)
(0.283637 0.00562408 0)
(0.284504 -0.0246245 0)
(0.270043 -0.0636017 0)
(0.23803 -0.116132 0)
(0.180602 -0.189155 0)
(0.107049 -0.292737 0)
(0.0114652 -0.391285 0)
(-0.0182832 -0.335638 0)
(-0.0183331 0.21625 0)
(-0.0189014 0.216518 0)
(0.0565222 0.180684 0)
(0.126128 0.137375 0)
(0.199255 0.106146 0)
(0.263067 0.0834241 0)
(0.320252 0.0665218 0)
(0.369976 0.0535394 0)
(0.413023 0.04283 0)
(0.449399 0.0331921 0)
(0.478794 0.023575 0)
(0.500326 0.0130812 0)
(0.51245 0.000748906 0)
(0.513102 -0.014461 0)
(0.498751 -0.0345276 0)
(0.466159 -0.0627901 0)
(0.405341 -0.107283 0)
(0.317403 -0.186047 0)
(0.169365 -0.295943 0)
(0.0421474 -0.334438 0)
(0.211728 0.130146 0)
(0.29864 0.101516 0)
(0.452941 0.0676054 0)
(0.544449 0.0439881 0)
(0.617624 0.0284542 0)
(0.671359 0.0191084 0)
(0.712985 0.013173 0)
(0.745546 0.00932136 0)
(0.771317 0.00660901 0)
(0.79147 0.00448792 0)
(0.806485 0.00257863 0)
(0.816229 0.00062409 0)
(0.82003 -0.00162144 0)
(0.816653 -0.00434989 0)
(0.803971 -0.00809851 0)
(0.778782 -0.0134374 0)
(0.732883 -0.0228366 0)
(0.657823 -0.0408296 0)
(0.497723 -0.0745291 0)
(0.288264 -0.136361 0)
)
;

boundaryField
{
    movingWall
    {
        type            fixedValue;
        value           uniform (1 0 0);
    }
    fixedWalls
    {
        type            noSlip;
    }
    frontAndBack
    {
        type            empty;
    }
}


// ************************************************************************* //
