/*--------------------------------*- C++ -*----------------------------------*\
| =========                 |                                                 |
| \\      /  F ield         | OpenFOAM: The Open Source CFD Toolbox           |
|  \\    /   O peration     | Version:  4.1                                   |
|   \\  /    A nd           | Web:      www.OpenFOAM.org                      |
|    \\/     M anipulation  |                                                 |
\*---------------------------------------------------------------------------*/
FoamFile
{
    version     2.0;
    format      ascii;
    class       volVectorField;
    location    "0.05";
    object      U;
}
// * * * * * * * * * * * * * * * * * * * * * * * * * * * * * * * * * * * * * //

dimensions      [0 1 -1 0 0 0 0];

internalField   nonuniform List<vector> 
100
(
(-0.00212308 0.00200108 0)
(-0.0052873 0.00197485 0)
(-0.0107548 0.00189 0)
(-0.0132237 0.000860336 0)
(-0.0155247 0.000426839 0)
(-0.0156664 -0.000847872 0)
(-0.0139314 -0.00133246 0)
(-0.0115215 -0.00249613 0)
(-0.00584989 -0.00264193 0)
(-0.00246678 -0.00268527 0)
(-0.00303657 0.00543075 0)
(-0.00856523 0.00654055 0)
(-0.0168356 0.00630249 0)
(-0.0208147 0.00364993 0)
(-0.0241639 0.00238306 0)
(-0.0243711 -0.00104097 0)
(-0.0218115 -0.00245519 0)
(-0.0179191 -0.00580651 0)
(-0.00938523 -0.00621588 0)
(-0.00345962 -0.00560492 0)
(-0.0035696 0.0137074 0)
(-0.00985871 0.01565 0)
(-0.0191654 0.0144776 0)
(-0.0236357 0.00781775 0)
(-0.0275075 0.00431498 0)
(-0.0278171 -0.00373836 0)
(-0.025245 -0.00760806 0)
(-0.0209444 -0.0155062 0)
(-0.0113434 -0.0171981 0)
(-0.00443811 -0.0158645 0)
(-0.00556635 0.018627 0)
(-0.0140628 0.0217765 0)
(-0.0261506 0.0202493 0)
(-0.0319711 0.0116387 0)
(-0.0366988 0.00708145 0)
(-0.037292 -0.00348991 0)
(-0.0345048 -0.0085786 0)
(-0.0291129 -0.0196142 0)
(-0.0166776 -0.0219632 0)
(-0.00690228 -0.0208655 0)
(-0.00668868 0.0337726 0)
(-0.0165613 0.0361 0)
(-0.030403 0.0330792 0)
(-0.0370332 0.0177504 0)
(-0.0426888 0.0101363 0)
(-0.0436215 -0.00694623 0)
(-0.0415304 -0.0156748 0)
(-0.035846 -0.0346309 0)
(-0.0220786 -0.0398617 0)
(-0.00991541 -0.0404853 0)
(-0.01308 0.0411684 0)
(-0.0285246 0.0447088 0)
(-0.0462006 0.0408562 0)
(-0.0551173 0.0233181 0)
(-0.0612949 0.0145266 0)
(-0.0630633 -0.00485473 0)
(-0.0621724 -0.0149045 0)
(-0.0554443 -0.0386827 0)
(-0.0383702 -0.0461584 0)
(-0.0180679 -0.0516101 0)
(-0.0153239 0.0766393 0)
(-0.0338404 0.0688694 0)
(-0.0530611 0.061172 0)
(-0.0626923 0.0316764 0)
(-0.0695836 0.0189873 0)
(-0.0715596 -0.00797401 0)
(-0.073581 -0.0231138 0)
(-0.06803 -0.0611445 0)
(-0.0537501 -0.0781879 0)
(-0.0270397 -0.0996601 0)
(-0.0381596 0.0882533 0)
(-0.0685283 0.0808075 0)
(-0.0793221 0.0698252 0)
(-0.0874327 0.0387776 0)
(-0.0889705 0.0248482 0)
(-0.0908351 -0.00122684 0)
(-0.0990085 -0.0157436 0)
(-0.0942615 -0.057696 0)
(-0.088744 -0.0832665 0)
(-0.0443604 -0.129629 0)
(-0.0329639 0.186732 0)
(-0.0391327 0.108621 0)
(-0.0305233 0.0832733 0)
(-0.0226335 0.0390886 0)
(-0.0165665 0.023964 0)
(-0.00754645 -0.00123264 0)
(-0.015635 -0.0190722 0)
(-0.00676259 -0.0766935 0)
(-0.0294251 -0.129334 0)
(-0.00955241 -0.240749 0)
(0.146224 0.153793 0)
(0.211052 0.0755747 0)
(0.321436 0.0544322 0)
(0.355255 0.0237495 0)
(0.381357 0.0124964 0)
(0.394829 -0.00261961 0)
(0.375227 -0.0114282 0)
(0.367377 -0.0417919 0)
(0.252654 -0.0703077 0)
(0.17205 -0.157414 0)
)
;

boundaryField
{
    movingWall
    {
        type            fixedValue;
        value           uniform (1 0 0);
    }
    fixedWalls
    {
        type            noSlip;
    }
    frontAndBack
    {
        type            empty;
    }
}


// ************************************************************************* //
