/*--------------------------------*- C++ -*----------------------------------*\
| =========                 |                                                 |
| \\      /  F ield         | OpenFOAM: The Open Source CFD Toolbox           |
|  \\    /   O peration     | Version:  4.1                                   |
|   \\  /    A nd           | Web:      www.OpenFOAM.org                      |
|    \\/     M anipulation  |                                                 |
\*---------------------------------------------------------------------------*/
FoamFile
{
    version     2.0;
    format      ascii;
    class       volVectorField;
    location    "0.124";
    object      U;
}
// * * * * * * * * * * * * * * * * * * * * * * * * * * * * * * * * * * * * * //

dimensions      [0 1 -1 0 0 0 0];

internalField   nonuniform List<vector> 
100
(
(-0.00164717 0.000961671 0)
(-0.00464335 0.00121321 0)
(-0.0121173 0.00145101 0)
(-0.0159589 0.00052875 0)
(-0.0200982 0.000201066 0)
(-0.0209846 -0.00122102 0)
(-0.0190277 -0.00182511 0)
(-0.0153778 -0.00328209 0)
(-0.00664435 -0.00323583 0)
(-0.00253975 -0.00277992 0)
(-0.00309805 0.00538566 0)
(-0.0106599 0.00918264 0)
(-0.0244959 0.010173 0)
(-0.0323113 0.00722262 0)
(-0.0395031 0.00524408 0)
(-0.0409805 -0.000147385 0)
(-0.0373301 -0.00340358 0)
(-0.0299025 -0.00937235 0)
(-0.0141403 -0.00943784 0)
(-0.00425282 -0.00638215 0)
(-0.00383957 0.0147158 0)
(-0.0136004 0.0223844 0)
(-0.0303959 0.0233492 0)
(-0.0402344 0.0150792 0)
(-0.0494324 0.00917107 0)
(-0.0518737 -0.00397316 0)
(-0.0485451 -0.0127253 0)
(-0.039736 -0.0270859 0)
(-0.0203312 -0.0290089 0)
(-0.0062379 -0.0214762 0)
(-0.00605617 0.0226723 0)
(-0.0190447 0.0354699 0)
(-0.0404294 0.0370401 0)
(-0.0532996 0.0259522 0)
(-0.0651543 0.0174646 0)
(-0.0696073 -0.0012071 0)
(-0.0674309 -0.0147621 0)
(-0.0575507 -0.0375453 0)
(-0.0327642 -0.0422372 0)
(-0.0105179 -0.032427 0)
(-0.00712167 0.0400434 0)
(-0.0221906 0.0564187 0)
(-0.0468221 0.0581312 0)
(-0.0623116 0.0390447 0)
(-0.0777631 0.0259269 0)
(-0.0856156 -0.0027559 0)
(-0.0877027 -0.0246609 0)
(-0.0793162 -0.0630912 0)
(-0.0511259 -0.0766019 0)
(-0.0172711 -0.0657987 0)
(-0.0140158 0.0514227 0)
(-0.0358198 0.0745163 0)
(-0.0664547 0.0773707 0)
(-0.0865294 0.0562984 0)
(-0.105143 0.0416643 0)
(-0.11737 0.00847592 0)
(-0.125303 -0.0196107 0)
(-0.119452 -0.0738637 0)
(-0.087243 -0.10272 0)
(-0.0311146 -0.099733 0)
(-0.0156126 0.090789 0)
(-0.0389388 0.108107 0)
(-0.0710436 0.110077 0)
(-0.0915864 0.0763004 0)
(-0.111747 0.0575772 0)
(-0.125139 0.0153838 0)
(-0.140706 -0.022341 0)
(-0.139813 -0.103824 0)
(-0.11574 -0.166238 0)
(-0.0445939 -0.187488 0)
(-0.0403467 0.104202 0)
(-0.0740203 0.128457 0)
(-0.0903788 0.130326 0)
(-0.100018 0.0958917 0)
(-0.10495 0.0767744 0)
(-0.107254 0.0368498 0)
(-0.123238 -0.00218201 0)
(-0.121265 -0.0981291 0)
(-0.119734 -0.193958 0)
(-0.0516432 -0.258067 0)
(-0.0360317 0.20811 0)
(-0.0276961 0.156274 0)
(-8.01562e-06 0.139399 0)
(0.0329439 0.0885854 0)
(0.0565728 0.0667061 0)
(0.0891493 0.0304847 0)
(0.0886475 -0.0068234 0)
(0.101721 -0.111222 0)
(0.0409763 -0.236255 0)
(0.0111001 -0.367381 0)
(0.148452 0.162225 0)
(0.237487 0.0898335 0)
(0.382825 0.0716316 0)
(0.45356 0.0387798 0)
(0.506463 0.024124 0)
(0.546907 0.00528991 0)
(0.540438 -0.00800936 0)
(0.535435 -0.0452084 0)
(0.38257 -0.0892586 0)
(0.212626 -0.191936 0)
)
;

boundaryField
{
    movingWall
    {
        type            fixedValue;
        value           uniform (1 0 0);
    }
    fixedWalls
    {
        type            noSlip;
    }
    frontAndBack
    {
        type            empty;
    }
}


// ************************************************************************* //
