/*--------------------------------*- C++ -*----------------------------------*\
| =========                 |                                                 |
| \\      /  F ield         | OpenFOAM: The Open Source CFD Toolbox           |
|  \\    /   O peration     | Version:  4.1                                   |
|   \\  /    A nd           | Web:      www.OpenFOAM.org                      |
|    \\/     M anipulation  |                                                 |
\*---------------------------------------------------------------------------*/
FoamFile
{
    version     2.0;
    format      ascii;
    class       volScalarField;
    location    "0.0011";
    object      p;
}
// * * * * * * * * * * * * * * * * * * * * * * * * * * * * * * * * * * * * * //

dimensions      [1 -1 -2 0 0 0 0];

internalField   nonuniform List<scalar> 
441
(
100000
99999.9
99999.7
100000
100000
99999.5
100000
100000
100000
100001
100001
100001
100001
100000
100000
100000
100000
100000
100000
100000
100000
100000
100000
100000
100000
100000
100000
100000
100000
100000
100000
100001
100000
100000
100000
100000
100000
100000
100000
100000
100000
100000
100000
99999.8
99999.9
99999.9
99999.9
99999.9
100000
100000
100000
100001
100001
100001
100001
100001
100001
100001
100001
100001
100001
100001
100001
100000
99999.7
99999.8
99999.8
99999.8
99999.9
100000
100000
100000
100000
100000
100000
100001
100001
100001
100001
100001
100001
100001
100001
100001
99999.9
99999.2
99999.4
99999.3
99999.4
99999.5
99999.7
99999.9
100000
100000
100000
100001
100001
100001
100001
100001
100001
100001
100001
100001
100001
99997.8
99998.8
99998.5
99998.9
99998.9
99999.2
99999.4
99999.6
99999.8
100000
100000
100001
100001
100001
100001
100001
100001
100002
100002
100002
100001
99997.3
99997.8
99997.8
99998.1
99998.3
99998.6
99998.9
99999.3
99999.6
100000
100000
100001
100001
100001
100002
100002
100002
100002
100002
100003
100002
99996.9
99997.1
99997.1
99997.4
99997.6
99998
99998.4
99998.9
99999.3
99999.9
100000
100001
100001
100002
100002
100003
100003
100003
100003
100004
100003
99995.7
99995.9
99996
99996.4
99996.7
99997.2
99997.7
99998.3
99999
99999.7
100000
100001
100002
100003
100003
100004
100004
100004
100004
100005
100004
99994.6
99994.7
99994.9
99995.3
99995.7
99996.3
99997
99997.8
99998.6
99999.6
100000
100001
100002
100003
100004
100005
100005
100006
100005
100006
100005
99992.9
99993
99993.3
99993.8
99994.3
99995.1
99996
99997.1
99998.1
99999.4
100001
100002
100003
100004
100005
100006
100006
100007
100007
100008
100009
99991.3
99991.5
99991.7
99992.4
99993
99994
99995
99996.3
99997.6
99999.1
100001
100002
100004
100005
100006
100007
100008
100009
100009
100010
100009
99988.7
99989
99989.3
99990.2
99991
99992.4
99993.6
99995.3
99997
99998.8
100001
100003
100004
100006
100008
100009
100010
100011
100011
100012
100010
99986.6
99987
99987.3
99988.4
99989.3
99991
99992.5
99994.5
99996.4
99998.6
100001
100003
100005
100007
100009
100011
100012
100013
100014
100014
100014
99982.4
99983.2
99983.6
99985.3
99986.5
99988.8
99990.7
99993.3
99995.6
99998.2
100001
100003
100006
100008
100011
100013
100015
100016
100018
100018
100017
99980.1
99980.9
99981.2
99983.3
99984.6
99987.4
99989.5
99992.5
99995.1
99998
100001
100004
100007
100009
100012
100015
100018
100019
100021
100021
100021
99972.6
99974.8
99975.3
99979.1
99981
99984.9
99987.6
99991.2
99994.2
99997.6
100001
100004
100008
100011
100015
100017
100022
100023
100030
100026
100040
99970.1
99972.5
99972.9
99977.2
99979.3
99983.7
99986.6
99990.6
99993.8
99997.4
100001
100004
100008
100011
100016
100018
100024
100025
100032
100031
100039
99954.3
99962.7
99963.8
99972.1
99975.1
99981.4
99984.9
99989.7
99993.2
99997.2
100001
100004
100009
100012
100017
100021
100028
100031
100041
100042
100054
99951.5
99960.8
99962.2
99971
99974.3
99980.9
99984.5
99989.4
99993
99997.1
100001
100004
100009
100012
100017
100020
100028
100030
100042
100043
100056
99904.6
99947.7
99951.4
99967.4
99971.6
99979.8
99983.8
99989.1
99992.8
99997
100001
100004
100009
100012
100018
100021
100031
100034
100053
100059
100107
)
;

boundaryField
{
    movingWall
    {
        type            zeroGradient;
    }
    fixedWalls
    {
        type            zeroGradient;
    }
    frontAndBack
    {
        type            empty;
    }
}


// ************************************************************************* //
