/*--------------------------------*- C++ -*----------------------------------*\
| =========                 |                                                 |
| \\      /  F ield         | OpenFOAM: The Open Source CFD Toolbox           |
|  \\    /   O peration     | Version:  4.1                                   |
|   \\  /    A nd           | Web:      www.OpenFOAM.org                      |
|    \\/     M anipulation  |                                                 |
\*---------------------------------------------------------------------------*/
FoamFile
{
    version     2.0;
    format      ascii;
    class       volVectorField;
    location    "3.5";
    object      U;
}
// * * * * * * * * * * * * * * * * * * * * * * * * * * * * * * * * * * * * * //

dimensions      [0 1 -1 0 0 0 0];

internalField   nonuniform List<vector> 
400
(
(0.000129881 -0.000127154 0)
(-0.000186265 0.000102948 0)
(-0.00141272 0.000295631 0)
(-0.00320282 0.00043194 0)
(-0.00536616 0.000492785 0)
(-0.00763667 0.000506211 0)
(-0.00984448 0.000478349 0)
(-0.0118143 0.000415144 0)
(-0.01339 0.000313904 0)
(-0.0144099 0.000173435 0)
(-0.0147275 -3.42999e-06 0)
(-0.0142345 -0.000203972 0)
(-0.0128976 -0.000404442 0)
(-0.0108001 -0.000569731 0)
(-0.00815378 -0.000662652 0)
(-0.00531634 -0.000647728 0)
(-0.0026988 -0.000517773 0)
(-0.000765063 -0.000275365 0)
(0.000249987 -6.40171e-06 0)
(0.000227341 0.000214013 0)
(-0.000100231 0.000178185 0)
(-0.00174048 0.00167348 0)
(-0.0052682 0.00299729 0)
(-0.00994685 0.00390973 0)
(-0.0153766 0.0043442 0)
(-0.0209952 0.00438446 0)
(-0.0263934 0.00407642 0)
(-0.0311531 0.00344992 0)
(-0.0348973 0.00251086 0)
(-0.0372587 0.00127578 0)
(-0.0379224 -0.000203224 0)
(-0.0366749 -0.0018128 0)
(-0.033474 -0.00337084 0)
(-0.0285235 -0.00463726 0)
(-0.0222944 -0.00536084 0)
(-0.0155482 -0.00533353 0)
(-0.00916062 -0.0044969 0)
(-0.00410427 -0.00295102 0)
(-0.000895052 -0.00115238 0)
(8.38294e-05 0.000279766 0)
(-0.000340961 0.0014769 0)
(-0.00342883 0.0052771 0)
(-0.00917107 0.00837368 0)
(-0.0164046 0.0104368 0)
(-0.0245758 0.0113921 0)
(-0.0329215 0.0113798 0)
(-0.0408765 0.0104936 0)
(-0.0478585 0.00879659 0)
(-0.0533398 0.00632025 0)
(-0.0568113 0.00312758 0)
(-0.0578394 -0.000632315 0)
(-0.056128 -0.00467443 0)
(-0.0516065 -0.00856316 0)
(-0.0445283 -0.0117407 0)
(-0.0355053 -0.0136249 0)
(-0.0255556 -0.0137408 0)
(-0.0158811 -0.0119363 0)
(-0.00787418 -0.00845138 0)
(-0.00233318 -0.00421031 0)
(-7.89219e-05 -0.000442752 0)
(-0.000566889 0.00361364 0)
(-0.00503588 0.0106052 0)
(-0.012866 0.0159111 0)
(-0.0224334 0.0193026 0)
(-0.0330443 0.0207975 0)
(-0.0437803 0.0206248 0)
(-0.0539805 0.0189383 0)
(-0.0629576 0.0158362 0)
(-0.0700832 0.0113772 0)
(-0.0747395 0.00567513 0)
(-0.0763811 -0.00101183 0)
(-0.0746036 -0.00820288 0)
(-0.0692457 -0.0151658 0)
(-0.0605187 -0.0209567 0)
(-0.0490717 -0.0245681 0)
(-0.0361003 -0.0251496 0)
(-0.0231037 -0.022361 0)
(-0.0119602 -0.0165392 0)
(-0.00385705 -0.00909291 0)
(-0.000229247 -0.0018881 0)
(-0.000757999 0.00656207 0)
(-0.00648858 0.0176397 0)
(-0.0162679 0.0255957 0)
(-0.0280143 0.0304851 0)
(-0.0409022 0.0325345 0)
(-0.0538861 0.0321141 0)
(-0.0662504 0.0294575 0)
(-0.0772455 0.0246963 0)
(-0.0861748 0.0179048 0)
(-0.0923237 0.00923109 0)
(-0.0950184 -0.000973192 0)
(-0.0936941 -0.0120357 0)
(-0.0880127 -0.0229057 0)
(-0.0780329 -0.0321889 0)
(-0.0643311 -0.0383303 0)
(-0.0482138 -0.0399337 0)
(-0.0314931 -0.0362903 0)
(-0.0166802 -0.0277166 0)
(-0.00554122 -0.0161184 0)
(-0.000362131 -0.00411653 0)
(-0.000929708 0.0102129 0)
(-0.00781369 0.0261972 0)
(-0.019403 0.0372169 0)
(-0.0331894 0.0437681 0)
(-0.0482325 0.0464081 0)
(-0.0633888 0.0457115 0)
(-0.0779237 0.0420169 0)
(-0.091062 0.0354829 0)
(-0.102066 0.0261718 0)
(-0.110134 0.0142224 0)
(-0.114446 3.0449e-05 0)
(-0.114223 -0.0155827 0)
(-0.108859 -0.0312602 0)
(-0.0981329 -0.0451084 0)
(-0.0824059 -0.0548837 0)
(-0.0629821 -0.0584026 0)
(-0.0419635 -0.0542857 0)
(-0.0226571 -0.0425934 0)
(-0.00767264 -0.0257066 0)
(-0.000525889 -0.00723122 0)
(-0.00108399 0.0145166 0)
(-0.00901971 0.0361794 0)
(-0.0222725 0.0506654 0)
(-0.0379459 0.0590572 0)
(-0.0550049 0.0623629 0)
(-0.0722398 0.0614293 0)
(-0.0889304 0.0567286 0)
(-0.104313 0.0484357 0)
(-0.117641 0.0365621 0)
(-0.128046 0.0211739 0)
(-0.13456 0.00263237 0)
(-0.136163 -0.0181717 0)
(-0.131909 -0.039629 0)
(-0.121172 -0.0593346 0)
(-0.103916 -0.0742205 0)
(-0.0812382 -0.0810163 0)
(-0.0553954 -0.0772197 0)
(-0.0305857 -0.0622035 0)
(-0.0105911 -0.038677 0)
(-0.000767891 -0.0115447 0)
(-0.00122384 0.0194046 0)
(-0.0101066 0.0474426 0)
(-0.0248498 0.0657614 0)
(-0.0422021 0.0761636 0)
(-0.0610508 0.080231 0)
(-0.0801519 0.0791542 0)
(-0.0988326 0.0735714 0)
(-0.116382 0.063664 0)
(-0.132087 0.0493495 0)
(-0.145055 0.0305472 0)
(-0.154213 0.00748462 0)
(-0.158321 -0.0189945 0)
(-0.156077 -0.0471401 0)
(-0.146359 -0.0740988 0)
(-0.128534 -0.0959097 0)
(-0.103186 -0.107917 0)
(-0.0723942 -0.105891 0)
(-0.0411409 -0.0877812 0)
(-0.0146921 -0.0561614 0)
(-0.00115317 -0.0175492 0)
(-0.00135064 0.0248213 0)
(-0.0110659 0.059845 0)
(-0.0270824 0.0822994 0)
(-0.0458141 0.0948339 0)
(-0.0660768 0.0997362 0)
(-0.0866217 0.0986167 0)
(-0.106854 0.0923218 0)
(-0.12616 0.0810365 0)
(-0.143915 0.064551 0)
(-0.15928 0.0425698 0)
(-0.171165 0.0150849 0)
(-0.178208 -0.0172477 0)
(-0.178825 -0.0527117 0)
(-0.171392 -0.0881821 0)
(-0.15453 -0.118888 0)
(-0.127926 -0.138608 0)
(-0.0929261 -0.14071 0)
(-0.0548048 -0.120597 0)
(-0.020404 -0.0796095 0)
(-0.0017661 -0.0259769 0)
(-0.00147055 0.0306913 0)
(-0.0119104 0.073189 0)
(-0.0289403 0.0999714 0)
(-0.048638 0.11465 0)
(-0.069739 0.120371 0)
(-0.0910194 0.119247 0)
(-0.111989 0.112389 0)
(-0.132183 0.0999974 0)
(-0.151132 0.081726 0)
(-0.168152 0.0570243 0)
(-0.182276 0.0255702 0)
(-0.19219 -0.0123085 0)
(-0.196216 -0.0551525 0)
(-0.192353 -0.0998745 0)
(-0.178461 -0.141206 0)
(-0.152995 -0.171471 0)
(-0.115856 -0.181097 0)
(-0.0715989 -0.16148 0)
(-0.0281611 -0.110611 0)
(-0.00272815 -0.0378176 0)
(-0.00161112 0.0369999 0)
(-0.0127167 0.0873189 0)
(-0.0304745 0.118443 0)
(-0.0506054 0.13507 0)
(-0.0717417 0.141403 0)
(-0.0927271 0.140148 0)
(-0.113204 0.132756 0)
(-0.132914 0.119477 0)
(-0.151619 0.0998526 0)
(-0.168901 0.0730811 0)
(-0.184083 0.0384962 0)
(-0.196121 -0.0040079 0)
(-0.203508 -0.0534592 0)
(-0.204145 -0.107217 0)
(-0.195328 -0.160083 0)
(-0.174163 -0.203482 0)
(-0.138488 -0.224843 0)
(-0.0906578 -0.210133 0)
(-0.0382965 -0.150563 0)
(-0.00421251 -0.0543517 0)
(-0.00182588 0.0437262 0)
(-0.0136943 0.102012 0)
(-0.0319331 0.137231 0)
(-0.0518705 0.155307 0)
(-0.0720103 0.161773 0)
(-0.0913528 0.160021 0)
(-0.109718 0.151938 0)
(-0.127128 0.137871 0)
(-0.143647 0.117309 0)
(-0.159235 0.0892498 0)
(-0.173652 0.0527146 0)
(-0.186332 0.00712704 0)
(-0.196233 -0.0472025 0)
(-0.201525 -0.108494 0)
(-0.199378 -0.172353 0)
(-0.1858 -0.230345 0)
(-0.156383 -0.26768 0)
(-0.109732 -0.264223 0)
(-0.0508014 -0.200008 0)
(-0.00645287 -0.0770979 0)
(-0.00225745 0.0512397 0)
(-0.015258 0.117429 0)
(-0.0337901 0.15607 0)
(-0.0528111 0.174584 0)
(-0.070689 0.180276 0)
(-0.0867632 0.177314 0)
(-0.101102 0.168121 0)
(-0.114109 0.153186 0)
(-0.126211 0.132014 0)
(-0.137828 0.103488 0)
(-0.149244 0.0663933 0)
(-0.160512 0.0197269 0)
(-0.171279 -0.0369205 0)
(-0.18035 -0.102917 0)
(-0.185357 -0.175366 0)
(-0.181851 -0.247326 0)
(-0.163735 -0.30353 0)
(-0.124839 -0.318716 0)
(-0.0648805 -0.25771 0)
(-0.00972475 -0.107679 0)
(-0.00313274 0.059769 0)
(-0.0182334 0.133392 0)
(-0.0370031 0.174234 0)
(-0.0542559 0.191612 0)
(-0.0682729 0.195225 0)
(-0.0791249 0.190068 0)
(-0.0872495 0.179171 0)
(-0.0935744 0.163175 0)
(-0.0989337 0.141662 0)
(-0.104234 0.113475 0)
(-0.110299 0.0772731 0)
(-0.11782 0.0317335 0)
(-0.12724 -0.0241858 0)
(-0.138235 -0.0910475 0)
(-0.149489 -0.167869 0)
(-0.156956 -0.250465 0)
(-0.154206 -0.325524 0)
(-0.130326 -0.365798 0)
(-0.0783478 -0.3195 0)
(-0.0142563 -0.147268 0)
(-0.00497275 0.0714686 0)
(-0.0237154 0.151388 0)
(-0.0424213 0.192009 0)
(-0.0565879 0.205491 0)
(-0.0645614 0.204989 0)
(-0.0678005 0.19624 0)
(-0.0672553 0.182851 0)
(-0.0645415 0.165522 0)
(-0.0608991 0.143896 0)
(-0.0576972 0.116815 0)
(-0.0562292 0.0828917 0)
(-0.0577473 0.0406264 0)
(-0.0634468 -0.0114618 0)
(-0.0739334 -0.0749105 0)
(-0.0893474 -0.150613 0)
(-0.106857 -0.237862 0)
(-0.121589 -0.327747 0)
(-0.119165 -0.396034 0)
(-0.0868723 -0.377732 0)
(-0.0200022 -0.196069 0)
(-0.00858436 0.0862977 0)
(-0.0340386 0.170008 0)
(-0.0514713 0.206819 0)
(-0.0598649 0.213026 0)
(-0.0580171 0.206298 0)
(-0.0500992 0.192796 0)
(-0.0377059 0.17645 0)
(-0.023294 0.157827 0)
(-0.00841198 0.136536 0)
(0.00522488 0.111428 0)
(0.016014 0.0811325 0)
(0.0223129 0.0441156 0)
(0.022334 -0.00128916 0)
(0.0146763 -0.0571659 0)
(-0.00235786 -0.125788 0)
(-0.0276179 -0.209738 0)
(-0.059698 -0.306117 0)
(-0.0830822 -0.399343 0)
(-0.0833328 -0.420327 0)
(-0.0260474 -0.250834 0)
(-0.0150338 0.114288 0)
(-0.0484944 0.194196 0)
(-0.0593644 0.219222 0)
(-0.055821 0.21185 0)
(-0.0380058 0.195757 0)
(-0.0141911 0.176315 0)
(0.013591 0.156903 0)
(0.042143 0.137485 0)
(0.0698824 0.11738 0)
(0.0950024 0.0953781 0)
(0.115849 0.070138 0)
(0.130636 0.0402146 0)
(0.137252 0.00397869 0)
(0.133752 -0.0407153 0)
(0.117139 -0.0967867 0)
(0.0868178 -0.168961 0)
(0.03949 -0.260385 0)
(-0.0111504 -0.368406 0)
(-0.0559275 -0.433384 0)
(-0.0290628 -0.305824 0)
(-0.0256793 0.142989 0)
(-0.0670292 0.208613 0)
(-0.0522463 0.213236 0)
(-0.0223436 0.189543 0)
(0.0224213 0.164671 0)
(0.0684741 0.141363 0)
(0.114868 0.121105 0)
(0.158567 0.103031 0)
(0.198699 0.0860243 0)
(0.233957 0.0688623 0)
(0.26309 0.0503178 0)
(0.284545 0.0291856 0)
(0.296274 0.00410673 0)
(0.296085 -0.0266356 0)
(0.280272 -0.0657616 0)
(0.24669 -0.118141 0)
(0.187539 -0.190902 0)
(0.11199 -0.294359 0)
(0.0141336 -0.393113 0)
(-0.0178228 -0.337079 0)
(-0.0184712 0.215725 0)
(-0.0192846 0.216008 0)
(0.0562714 0.180717 0)
(0.126449 0.138067 0)
(0.200613 0.107369 0)
(0.26579 0.084964 0)
(0.324515 0.0681388 0)
(0.375765 0.0550051 0)
(0.420143 0.0439505 0)
(0.457497 0.0338327 0)
(0.487408 0.023681 0)
(0.508955 0.0126865 0)
(0.520633 -3.1967e-05 0)
(0.520465 -0.0154571 0)
(0.505064 -0.0355464 0)
(0.471309 -0.063649 0)
(0.409353 -0.107873 0)
(0.320246 -0.186377 0)
(0.171017 -0.296238 0)
(0.0425035 -0.334711 0)
(0.211616 0.12997 0)
(0.298214 0.101317 0)
(0.452306 0.0675171 0)
(0.543885 0.0440417 0)
(0.617455 0.0286209 0)
(0.671824 0.0193399 0)
(0.714219 0.0134163 0)
(0.747557 0.00952937 0)
(0.773993 0.00674479 0)
(0.794604 0.00452904 0)
(0.809805 0.00252067 0)
(0.81945 0.000481091 0)
(0.822901 -0.00181928 0)
(0.818996 -0.00456341 0)
(0.80571 -0.00828586 0)
(0.779941 -0.013564 0)
(0.733582 -0.0228842 0)
(0.658215 -0.0408015 0)
(0.497941 -0.0744678 0)
(0.288306 -0.136302 0)
)
;

boundaryField
{
    movingWall
    {
        type            fixedValue;
        value           uniform (1 0 0);
    }
    fixedWalls
    {
        type            noSlip;
    }
    frontAndBack
    {
        type            empty;
    }
}


// ************************************************************************* //
