/*--------------------------------*- C++ -*----------------------------------*\
| =========                 |                                                 |
| \\      /  F ield         | OpenFOAM: The Open Source CFD Toolbox           |
|  \\    /   O peration     | Version:  4.1                                   |
|   \\  /    A nd           | Web:      www.OpenFOAM.org                      |
|    \\/     M anipulation  |                                                 |
\*---------------------------------------------------------------------------*/
FoamFile
{
    version     2.0;
    format      ascii;
    class       volVectorField;
    location    "0.192";
    object      U;
}
// * * * * * * * * * * * * * * * * * * * * * * * * * * * * * * * * * * * * * //

dimensions      [0 1 -1 0 0 0 0];

internalField   nonuniform List<vector> 
100
(
(-0.00130958 0.000684783 0)
(-0.00403565 0.00106964 0)
(-0.0118575 0.0014788 0)
(-0.0165529 0.000740148 0)
(-0.0216573 0.000517538 0)
(-0.02332 -0.000864467 0)
(-0.0214262 -0.00157633 0)
(-0.0169297 -0.00311574 0)
(-0.00673504 -0.00298715 0)
(-0.00209015 -0.00221857 0)
(-0.00289368 0.00470961 0)
(-0.0110616 0.0094113 0)
(-0.0267861 0.0113333 0)
(-0.0370681 0.0088491 0)
(-0.0466106 0.00664839 0)
(-0.0496396 0.000350048 0)
(-0.0458549 -0.00448302 0)
(-0.0362525 -0.0118646 0)
(-0.0165477 -0.0117597 0)
(-0.00409287 -0.00659247 0)
(-0.00382888 0.014643 0)
(-0.0152978 0.0247526 0)
(-0.0354996 0.0277151 0)
(-0.0492846 0.0201346 0)
(-0.0622483 0.0133907 0)
(-0.0674075 -0.00213192 0)
(-0.0644756 -0.0147656 0)
(-0.052864 -0.0329634 0)
(-0.0268111 -0.0352678 0)
(-0.00665468 -0.0230771 0)
(-0.00611503 0.0236392 0)
(-0.0213058 0.040784 0)
(-0.0469443 0.045481 0)
(-0.0648981 0.0352469 0)
(-0.0821063 0.0252697 0)
(-0.0913694 0.00236636 0)
(-0.0916099 -0.0183593 0)
(-0.0798448 -0.0495753 0)
(-0.0460714 -0.057486 0)
(-0.0121433 -0.0396069 0)
(-0.00721364 0.0422915 0)
(-0.024506 0.0652536 0)
(-0.0538524 0.071806 0)
(-0.0754128 0.0545604 0)
(-0.0982665 0.0403172 0)
(-0.113947 0.00642092 0)
(-0.121939 -0.0261075 0)
(-0.113789 -0.079703 0)
(-0.0746832 -0.103613 0)
(-0.0210495 -0.0822152 0)
(-0.0139617 0.0547359 0)
(-0.0369983 0.086702 0)
(-0.071594 0.0964836 0)
(-0.0973127 0.0789301 0)
(-0.123872 0.0645204 0)
(-0.145278 0.0256296 0)
(-0.161565 -0.0172541 0)
(-0.15818 -0.0967276 0)
(-0.1169 -0.149186 0)
(-0.0371591 -0.134594 0)
(-0.0152564 0.0941897 0)
(-0.0370619 0.122139 0)
(-0.0703626 0.133342 0)
(-0.0930208 0.105402 0)
(-0.117661 0.0890996 0)
(-0.13615 0.0421804 0)
(-0.158121 -0.012794 0)
(-0.160454 -0.126701 0)
(-0.134974 -0.226064 0)
(-0.0508108 -0.239892 0)
(-0.0396391 0.105286 0)
(-0.0684124 0.140271 0)
(-0.0800389 0.152754 0)
(-0.0836587 0.125013 0)
(-0.0826201 0.109171 0)
(-0.0779165 0.0653955 0)
(-0.0907953 0.00994949 0)
(-0.092346 -0.118921 0)
(-0.104192 -0.254778 0)
(-0.0519126 -0.318911 0)
(-0.036308 0.205461 0)
(-0.0240355 0.160832 0)
(0.0123953 0.152173 0)
(0.0580095 0.105965 0)
(0.0957135 0.0856753 0)
(0.143896 0.0477411 0)
(0.154445 0.00401207 0)
(0.169056 -0.11543 0)
(0.0897586 -0.265204 0)
(0.0204543 -0.40326 0)
(0.146652 0.159868 0)
(0.234385 0.0887018 0)
(0.384123 0.0723725 0)
(0.463306 0.0408349 0)
(0.526637 0.0265662 0)
(0.57757 0.00732878 0)
(0.579832 -0.00802445 0)
(0.576961 -0.0479687 0)
(0.415837 -0.092246 0)
(0.221633 -0.195421 0)
)
;

boundaryField
{
    movingWall
    {
        type            fixedValue;
        value           uniform (1 0 0);
    }
    fixedWalls
    {
        type            noSlip;
    }
    frontAndBack
    {
        type            empty;
    }
}


// ************************************************************************* //
