/*--------------------------------*- C++ -*----------------------------------*\
| =========                 |                                                 |
| \\      /  F ield         | OpenFOAM: The Open Source CFD Toolbox           |
|  \\    /   O peration     | Version:  4.1                                   |
|   \\  /    A nd           | Web:      www.OpenFOAM.org                      |
|    \\/     M anipulation  |                                                 |
\*---------------------------------------------------------------------------*/
FoamFile
{
    version     2.0;
    format      ascii;
    class       volVectorField;
    location    "0.0728";
    object      U;
}
// * * * * * * * * * * * * * * * * * * * * * * * * * * * * * * * * * * * * * //

dimensions      [0 1 -1 0 0 0 0];

internalField   nonuniform List<vector> 
441
(
(0.0036027 -0.00473093 0)
(0.00936531 -0.00254088 0)
(-0.000635221 -2.19282e-165 0)
(0.00188785 -3.17228e-266 0)
(-0.00842268 -0.0075519 0)
(-0.00188785 -2.95596e-232 0)
(-1.11972e-202 -5.33225e-203 0)
(-1.33294e-203 -6.97596e-228 0)
(-1.65866e-212 -3.03538e-213 0)
(-0.0059185 8.79833e-266 0)
(-0.0723715 0.0236756 0)
(-0.0911614 0.0124405 0)
(-0.103042 0.00575032 0)
(-0.0911778 0.000473713 0)
(-0.0756687 -0.00151289 0)
(-0.0511587 -0.00288046 0)
(-0.0298728 -0.00210415 0)
(-0.010575 -0.00163787 0)
(0.00147706 0.000595064 0)
(0.00379639 0.00133467 0)
(0.0044054 0.00286295 0)
(0.00364596 -0.00804879 0)
(-0.00127074 0.0067174 0)
(-0.0271747 0.00823477 0)
(-0.0580762 0.0106152 0)
(-0.104001 0.0104773 0)
(-0.147068 -0.00343557 0)
(-0.187491 -0.000204244 0)
(-0.226256 0.0015733 0)
(-0.260668 0.0127046 0)
(-0.295466 0.0644021 0)
(-0.319362 0.0594771 0)
(-0.314216 0.018632 0)
(-0.300629 -0.0062958 0)
(-0.260823 -0.0286082 0)
(-0.213891 -0.0386606 0)
(-0.154106 -0.0442022 0)
(-0.0996926 -0.038292 0)
(-0.0506647 -0.0309763 0)
(-0.0170025 -0.0144553 0)
(-0.00208414 -0.00499473 0)
(0.00472677 0.00556256 0)
(0.00728642 -0.00762097 0)
(-0.00527996 0.0278928 0)
(-0.0529744 0.0554241 0)
(-0.117236 0.0743647 0)
(-0.195442 0.0802993 0)
(-0.27626 0.0794638 0)
(-0.362883 0.076416 0)
(-0.433065 0.0707891 0)
(-0.502134 0.0665603 0)
(-0.535918 0.0631424 0)
(-0.532231 0.043342 0)
(-0.515393 -0.00508221 0)
(-0.48091 -0.0469629 0)
(-0.419328 -0.0860765 0)
(-0.345626 -0.107267 0)
(-0.255695 -0.117367 0)
(-0.171843 -0.104366 0)
(-0.0943535 -0.084846 0)
(-0.0391935 -0.046885 0)
(-0.00887786 -0.0208363 0)
(0.00614216 0.00590982 0)
(0.00620621 -0.0103573 0)
(-0.0155434 0.0687018 0)
(-0.093614 0.120181 0)
(-0.185387 0.155445 0)
(-0.2933 0.169865 0)
(-0.401716 0.166708 0)
(-0.508365 0.15827 0)
(-0.600581 0.141704 0)
(-0.676562 0.11794 0)
(-0.721515 0.0918423 0)
(-0.730948 0.0386926 0)
(-0.708981 -0.0338101 0)
(-0.662285 -0.102514 0)
(-0.580912 -0.165067 0)
(-0.482885 -0.202125 0)
(-0.363138 -0.219513 0)
(-0.249633 -0.199072 0)
(-0.141789 -0.165303 0)
(-0.0635038 -0.0990558 0)
(-0.0159117 -0.0517181 0)
(0.007836 0.00321002 0)
(6.71523e-165 0.00155155 0)
(-0.0234452 0.127264 0)
(-0.135474 0.224486 0)
(-0.249883 0.272627 0)
(-0.385858 0.295542 0)
(-0.517883 0.292713 0)
(-0.649227 0.273992 0)
(-0.760509 0.237904 0)
(-0.853149 0.186782 0)
(-0.908246 0.118226 0)
(-0.925513 0.0312228 0)
(-0.904959 -0.0734932 0)
(-0.850924 -0.174265 0)
(-0.754154 -0.265833 0)
(-0.63375 -0.323953 0)
(-0.482473 -0.351519 0)
(-0.336866 -0.324223 0)
(-0.191954 -0.272107 0)
(-0.0879915 -0.171047 0)
(-0.017823 -0.093056 0)
(0.0144405 -0.00137151 0)
(-5.4472e-266 0.00560127 0)
(-0.0864245 0.208851 0)
(-0.18909 0.344661 0)
(-0.326331 0.407655 0)
(-0.47504 0.437742 0)
(-0.627431 0.431146 0)
(-0.774673 0.401522 0)
(-0.904814 0.34588 0)
(-1.01256 0.266551 0)
(-1.0848 0.163422 0)
(-1.1191 0.0357033 0)
(-1.10684 -0.109427 0)
(-1.05377 -0.253069 0)
(-0.946211 -0.383871 0)
(-0.806121 -0.473354 0)
(-0.621897 -0.518886 0)
(-0.440003 -0.488535 0)
(-0.251435 -0.41734 0)
(-0.116293 -0.271201 0)
(-0.0193975 -0.157383 0)
(0.0161285 0.00113642 0)
(-0.0224051 0.0911563 0)
(-0.120399 0.312827 0)
(-0.238749 0.464761 0)
(-0.389814 0.556761 0)
(-0.557098 0.59583 0)
(-0.72763 0.590891 0)
(-0.894946 0.550562 0)
(-1.045 0.474855 0)
(-1.17366 0.366535 0)
(-1.26637 0.224517 0)
(-1.32053 0.0537437 0)
(-1.32291 -0.139142 0)
(-1.27735 -0.33389 0)
(-1.16507 -0.514437 0)
(-1.0094 -0.646804 0)
(-0.790869 -0.719528 0)
(-0.569815 -0.692405 0)
(-0.324271 -0.598279 0)
(-0.155243 -0.399827 0)
(-0.00646976 -0.227329 0)
(5.92263e-266 -0.00403212 0)
(-0.0165034 0.150832 0)
(-0.115239 0.426347 0)
(-0.261264 0.614633 0)
(-0.432595 0.726784 0)
(-0.619662 0.775792 0)
(-0.809366 0.769284 0)
(-0.995378 0.719201 0)
(-1.16671 0.624461 0)
(-1.31774 0.488338 0)
(-1.43565 0.309717 0)
(-1.51569 0.0926623 0)
(-1.54053 -0.153691 0)
(-1.51169 -0.410402 0)
(-1.40375 -0.654064 0)
(-1.23962 -0.846867 0)
(-0.990623 -0.962643 0)
(-0.727407 -0.953489 0)
(-0.419442 -0.838265 0)
(-0.202109 -0.584378 0)
(-0.00345137 -0.322147 0)
(2.54513e-24 -1.10085e-24 0)
(-0.0146666 0.219336 0)
(-0.119056 0.555739 0)
(-0.281907 0.780513 0)
(-0.46839 0.913309 0)
(-0.672183 0.971283 0)
(-0.877728 0.96499 0)
(-1.08104 0.906988 0)
(-1.27206 0.796053 0)
(-1.44575 0.635211 0)
(-1.59012 0.421804 0)
(-1.69896 0.159198 0)
(-1.7528 -0.143702 0)
(-1.7496 -0.469243 0)
(-1.65757 -0.787844 0)
(-1.4966 -1.05776 0)
(-1.22596 -1.23497 0)
(-0.924382 -1.25993 0)
(-0.547718 -1.12891 0)
(-0.271967 -0.808101 0)
(-0.00486442 -0.437296 0)
(1.03838e-76 -6.36282e-25 0)
(-0.012808 0.285139 0)
(-0.117304 0.695292 0)
(-0.290179 0.964698 0)
(-0.486075 1.11763 0)
(-0.700573 1.18555 0)
(-0.916718 1.17808 0)
(-1.13143 1.11375 0)
(-1.33747 0.98872 0)
(-1.52952 0.806552 0)
(-1.69847 0.562185 0)
(-1.8365 0.255647 0)
(-1.92386 -0.104264 0)
(-1.9549 -0.504982 0)
(-1.89215 -0.909725 0)
(-1.74991 -1.27764 0)
(-1.47374 -1.54087 0)
(-1.14337 -1.63022 0)
(-0.699181 -1.50104 0)
(-0.355483 -1.12159 0)
(-0.00690431 -0.609421 0)
(2.89109e-164 -2.59594e-77 0)
(-0.0129377 0.34603 0)
(-0.119171 0.831362 0)
(-0.298448 1.14698 0)
(-0.498611 1.32143 0)
(-0.716424 1.40021 0)
(-0.934964 1.3938 0)
(-1.1515 1.3266 0)
(-1.36294 1.19263 0)
(-1.56348 0.995771 0)
(-1.74919 0.727902 0)
(-1.91053 0.385167 0)
(-2.03145 -0.0257349 0)
(-2.10183 -0.49896 0)
(-2.08249 -0.993794 0)
(-1.97873 -1.47281 0)
(-1.72268 -1.84535 0)
(-1.38673 -2.02956 0)
(-0.892085 -1.92511 0)
(-0.480176 -1.4887 0)
(-0.0792082 -0.805942 0)
(1.77148e-265 0.0131699 0)
(-0.0136085 0.418153 0)
(-0.117222 0.982973 0)
(-0.295694 1.34562 0)
(-0.491268 1.5363 0)
(-0.701553 1.62304 0)
(-0.910761 1.61309 0)
(-1.11564 1.54234 0)
(-1.31847 1.40022 0)
(-1.5126 1.19294 0)
(-1.70119 0.908479 0)
(-1.87382 0.537948 0)
(-2.02116 0.0859983 0)
(-2.13041 -0.453386 0)
(-2.16422 -1.03508 0)
(-2.11852 -1.63631 0)
(-1.91274 -2.13949 0)
(-1.60042 -2.45964 0)
(-1.07426 -2.42198 0)
(-0.580179 -1.92862 0)
(-0.075252 -1.10934 0)
(0.0526796 -0.0749301 0)
(-0.0170217 0.472484 0)
(-0.122045 1.1105 0)
(-0.301402 1.51812 0)
(-0.488158 1.72398 0)
(-0.680044 1.81788 0)
(-0.866506 1.8053 0)
(-1.04126 1.73335 0)
(-1.21652 1.58804 0)
(-1.38224 1.37822 0)
(-1.55338 1.08858 0)
(-1.71654 0.705852 0)
(-1.87612 0.231291 0)
(-2.01432 -0.353267 0)
(-2.10631 -1.00491 0)
(-2.13443 -1.71891 0)
(-2.01344 -2.36522 0)
(-1.77279 -2.86143 0)
(-1.24064 -2.95425 0)
(-0.711807 -2.48126 0)
(0.0417858 -1.44592 0)
(2.43201e-231 -0.0131699 0)
(-0.0216975 0.560167 0)
(-0.125273 1.27041 0)
(-0.298293 1.71561 0)
(-0.465902 1.91605 0)
(-0.625519 2.00456 0)
(-0.773393 1.97468 0)
(-0.89959 1.89436 0)
(-1.02692 1.74131 0)
(-1.14161 1.53059 0)
(-1.27097 1.24282 0)
(-1.39969 0.860644 0)
(-1.54748 0.383809 0)
(-1.69579 -0.223264 0)
(-1.83701 -0.915395 0)
(-1.94789 -1.72819 0)
(-1.94867 -2.50533 0)
(-1.83988 -3.23101 0)
(-1.40811 -3.50116 0)
(-0.892178 -3.20473 0)
(-0.00315367 -1.85864 0)
(5.79254e-202 4.57221e-184 0)
(-0.0377682 0.612507 0)
(-0.157246 1.38104 0)
(-0.333765 1.855 0)
(-0.480529 2.04578 0)
(-0.590339 2.1239 0)
(-0.681312 2.07607 0)
(-0.732062 1.98675 0)
(-0.786975 1.82896 0)
(-0.821573 1.62289 0)
(-0.882707 1.34751 0)
(-0.946191 0.983794 0)
(-1.05653 0.53002 0)
(-1.18413 -0.060416 0)
(-1.36156 -0.748696 0)
(-1.53993 -1.59916 0)
(-1.6985 -2.46985 0)
(-1.7587 -3.38554 0)
(-1.54133 -3.91059 0)
(-1.11205 -3.86278 0)
(-0.0113234 -2.36833 0)
(1.82889e-183 -1.04234e-184 0)
(-0.0564879 0.763302 0)
(-0.192196 1.57073 0)
(-0.360947 2.04842 0)
(-0.472605 2.17407 0)
(-0.515443 2.2126 0)
(-0.531206 2.11722 0)
(-0.488305 2.0044 0)
(-0.450843 1.83173 0)
(-0.384999 1.62826 0)
(-0.353796 1.36892 0)
(-0.326165 1.03453 0)
(-0.365654 0.624213 0)
(-0.438699 0.080184 0)
(-0.608345 -0.55608 0)
(-0.827395 -1.39429 0)
(-1.12104 -2.28294 0)
(-1.40597 -3.39288 0)
(-1.51502 -4.15456 0)
(-1.40489 -4.75176 0)
(-0.464699 -3.01788 0)
(4.39536e-254 -4.57221e-184 0)
(-0.122257 0.84737 0)
(-0.325708 1.67242 0)
(-0.48659 2.13039 0)
(-0.550084 2.19065 0)
(-0.475669 2.18186 0)
(-0.381073 2.04406 0)
(-0.200243 1.90745 0)
(-0.0403762 1.72475 0)
(0.156438 1.52752 0)
(0.301413 1.29122 0)
(0.444475 0.997986 0)
(0.493068 0.648625 0)
(0.506099 0.186051 0)
(0.359566 -0.350551 0)
(0.155288 -1.07842 0)
(-0.296688 -1.88018 0)
(-0.742189 -2.96543 0)
(-1.47477 -3.91055 0)
(-1.6565 -4.82271 0)
(-2.07096 -3.84956 0)
(-2.58132e-264 -0.215433 0)
(-0.178394 1.23287 0)
(-0.421421 1.93943 0)
(-0.515638 2.2952 0)
(-0.477773 2.16339 0)
(-0.248946 2.05742 0)
(-0.0101728 1.84137 0)
(0.325688 1.67028 0)
(0.623885 1.47515 0)
(0.957445 1.28863 0)
(1.2239 1.08275 0)
(1.48512 0.84243 0)
(1.63614 0.567655 0)
(1.74728 0.210379 0)
(1.67631 -0.195745 0)
(1.53055 -0.748887 0)
(1.09063 -1.36912 0)
(0.559383 -2.24618 0)
(-0.365617 -3.1963 0)
(-1.09221 -4.24565 0)
(-1.84375 -4.52495 0)
(-0.861731 -2.31353 0)
(-0.40037 1.41293 0)
(-0.727231 1.98099 0)
(-0.52523 2.18096 0)
(-0.250752 1.90701 0)
(0.298291 1.71521 0)
(0.755007 1.46143 0)
(1.30347 1.27534 0)
(1.75512 1.09093 0)
(2.22625 0.929458 0)
(2.59745 0.766517 0)
(2.95437 0.588175 0)
(3.17774 0.395201 0)
(3.36393 0.149357 0)
(3.33961 -0.118183 0)
(3.26359 -0.489165 0)
(2.83906 -0.887089 0)
(2.36881 -1.51001 0)
(1.34957 -2.22938 0)
(0.448539 -3.34975 0)
(-0.710865 -4.00215 0)
(-0.700586 -2.96343 0)
(-0.256797 2.42239 0)
(-0.102837 2.05895 0)
(0.683318 1.86916 0)
(1.32758 1.33179 0)
(2.13963 1.0718 0)
(2.76238 0.829156 0)
(3.4123 0.676219 0)
(3.92208 0.548086 0)
(4.42007 0.446752 0)
(4.80114 0.35433 0)
(5.15585 0.260595 0)
(5.37666 0.163463 0)
(5.56128 0.0452283 0)
(5.55071 -0.0825714 0)
(5.50227 -0.258309 0)
(5.13977 -0.452812 0)
(4.75307 -0.788107 0)
(3.82399 -1.24375 0)
(2.86247 -2.25349 0)
(1.09052 -3.32984 0)
(-0.0458877 -3.79918 0)
(1.6676 1.66991 0)
(2.70432 0.974977 0)
(4.54503 0.7485 0)
(5.38318 0.423623 0)
(6.24907 0.285969 0)
(6.75729 0.17749 0)
(7.23495 0.120749 0)
(7.55682 0.0805474 0)
(7.85382 0.0543463 0)
(8.05616 0.0340377 0)
(8.23884 0.0159317 0)
(8.32964 -0.00115724 0)
(8.40413 -0.022186 0)
(8.34881 -0.0430316 0)
(8.28997 -0.078493 0)
(8.00487 -0.111654 0)
(7.75026 -0.201019 0)
(6.99677 -0.293682 0)
(6.2631 -0.625639 0)
(4.04619 -0.99776 0)
(2.00576 -1.81846 0)
)
;

boundaryField
{
    movingWall
    {
        type            fixedValue;
        value           uniform (10 0 0);
    }
    fixedWalls
    {
        type            noSlip;
    }
    frontAndBack
    {
        type            empty;
    }
}


// ************************************************************************* //
