/*--------------------------------*- C++ -*----------------------------------*\
| =========                 |                                                 |
| \\      /  F ield         | OpenFOAM: The Open Source CFD Toolbox           |
|  \\    /   O peration     | Version:  4.1                                   |
|   \\  /    A nd           | Web:      www.OpenFOAM.org                      |
|    \\/     M anipulation  |                                                 |
\*---------------------------------------------------------------------------*/
FoamFile
{
    version     2.0;
    format      ascii;
    class       volVectorField;
    location    "7";
    object      U;
}
// * * * * * * * * * * * * * * * * * * * * * * * * * * * * * * * * * * * * * //

dimensions      [0 1 -1 0 0 0 0];

internalField   nonuniform List<vector> 
400
(
(0.000188976 -0.000186121 0)
(-0.000104926 8.71281e-05 0)
(-0.0015179 0.000326365 0)
(-0.00365497 0.000502231 0)
(-0.00628919 0.000587686 0)
(-0.00909412 0.000615945 0)
(-0.0118531 0.0005919 0)
(-0.0143321 0.000519775 0)
(-0.016312 0.000393704 0)
(-0.017565 0.000211812 0)
(-0.0178902 -1.98802e-05 0)
(-0.0171521 -0.000280378 0)
(-0.0153314 -0.000533559 0)
(-0.0125747 -0.000730345 0)
(-0.00919982 -0.000822693 0)
(-0.00569673 -0.000771315 0)
(-0.0025984 -0.000577285 0)
(-0.000449391 -0.000260061 0)
(0.000519238 6.30394e-05 0)
(0.000305096 0.00029031 0)
(-9.03356e-05 9.57534e-05 0)
(-0.00200561 0.00188956 0)
(-0.00628163 0.0035511 0)
(-0.0120446 0.00473864 0)
(-0.0188087 0.00534486 0)
(-0.0258689 0.005458 0)
(-0.0326906 0.00511582 0)
(-0.0387074 0.00433728 0)
(-0.0433937 0.00312026 0)
(-0.0462414 0.00149241 0)
(-0.0468349 -0.000455936 0)
(-0.0449256 -0.00254443 0)
(-0.0405242 -0.00450437 0)
(-0.0339814 -0.00600759 0)
(-0.0259933 -0.00673874 0)
(-0.0175924 -0.00647364 0)
(-0.00990515 -0.00520732 0)
(-0.00408222 -0.00315579 0)
(-0.00065033 -0.000964445 0)
(0.000166775 0.00055157 0)
(-0.000406511 0.00163548 0)
(-0.00421442 0.00628619 0)
(-0.0113805 0.0102016 0)
(-0.0204707 0.0128897 0)
(-0.0307959 0.0142105 0)
(-0.0413836 0.0142999 0)
(-0.0514831 0.0132318 0)
(-0.0603005 0.01105 0)
(-0.0671066 0.00778528 0)
(-0.0712149 0.00354695 0)
(-0.0720774 -0.00141 0)
(-0.0693733 -0.00663877 0)
(-0.0631151 -0.011509 0)
(-0.0537492 -0.0152732 0)
(-0.0421705 -0.0172139 0)
(-0.0297398 -0.016823 0)
(-0.0179868 -0.0140595 0)
(-0.00856756 -0.00941296 0)
(-0.00233782 -0.00419952 0)
(-2.1191e-05 -5.93728e-05 0)
(-0.000716061 0.00430453 0)
(-0.00638181 0.0129837 0)
(-0.0163202 0.0197137 0)
(-0.028479 0.0241132 0)
(-0.0419765 0.0261441 0)
(-0.055629 0.0260301 0)
(-0.0685498 0.023897 0)
(-0.0798029 0.0198216 0)
(-0.0885338 0.0138823 0)
(-0.0939379 0.00629062 0)
(-0.0953603 -0.00250675 0)
(-0.092383 -0.0117621 0)
(-0.0849395 -0.0204347 0)
(-0.0734418 -0.0272844 0)
(-0.0588313 -0.0310873 0)
(-0.042673 -0.0309265 0)
(-0.0268456 -0.0266125 0)
(-0.0135847 -0.0188583 0)
(-0.00421711 -0.0096725 0)
(-0.000210524 -0.00155778 0)
(-0.000980494 0.00807561 0)
(-0.00832909 0.0219544 0)
(-0.0208103 0.0320453 0)
(-0.0357641 0.0383337 0)
(-0.0521266 0.0410433 0)
(-0.0685427 0.040553 0)
(-0.0840477 0.0370699 0)
(-0.0976281 0.0307126 0)
(-0.108361 0.0216075 0)
(-0.115354 0.0100625 0)
(-0.117842 -0.00329484 0)
(-0.115254 -0.0174239 0)
(-0.107339 -0.0308599 0)
(-0.0943327 -0.0418105 0)
(-0.0770693 -0.048413 0)
(-0.0572095 -0.0491422 0)
(-0.0369716 -0.0434363 0)
(-0.0193261 -0.032081 0)
(-0.00629649 -0.0177795 0)
(-0.000384945 -0.00403442 0)
(-0.00120638 0.0127775 0)
(-0.0100092 0.032886 0)
(-0.0247126 0.0468168 0)
(-0.0421176 0.0551417 0)
(-0.0610041 0.0585077 0)
(-0.0798892 0.057532 0)
(-0.0977806 0.0525422 0)
(-0.113644 0.0437044 0)
(-0.126536 0.0311765 0)
(-0.135508 0.0153237 0)
(-0.139674 -0.00310162 0)
(-0.138265 -0.0228269 0)
(-0.130747 -0.0420004 0)
(-0.117023 -0.0582476 0)
(-0.0976369 -0.0689238 0)
(-0.0741773 -0.0716165 0)
(-0.049131 -0.0650212 0)
(-0.0263497 -0.0496902 0)
(-0.00884755 -0.0289653 0)
(-0.000594495 -0.00760552 0)
(-0.00138505 0.0182714 0)
(-0.0113628 0.0454964 0)
(-0.027883 0.0636928 0)
(-0.0473039 0.0742018 0)
(-0.0682838 0.0782422 0)
(-0.0892597 0.0767539 0)
(-0.109257 0.0702299 0)
(-0.127275 0.0588887 0)
(-0.142401 0.0428924 0)
(-0.153669 0.0226028 0)
(-0.160096 -0.00119347 0)
(-0.160699 -0.0270992 0)
(-0.154596 -0.0529691 0)
(-0.141223 -0.0758737 0)
(-0.120617 -0.092269 0)
(-0.094025 -0.098529 0)
(-0.0639852 -0.0920673 0)
(-0.0352619 -0.0726562 0)
(-0.012194 -0.0440499 0)
(-0.000888213 -0.0125966 0)
(-0.00151195 0.024363 0)
(-0.0123393 0.0593907 0)
(-0.0301854 0.0821891 0)
(-0.0510716 0.0950061 0)
(-0.0735692 0.0997631 0)
(-0.0960825 0.0978063 0)
(-0.117698 0.0898443 0)
(-0.137503 0.0761565 0)
(-0.154675 0.0568815 0)
(-0.168297 0.0323076 0)
(-0.177352 0.00314369 0)
(-0.180689 -0.0292376 0)
(-0.177084 -0.0625616 0)
(-0.165427 -0.0934704 0)
(-0.145035 -0.117505 0)
(-0.116447 -0.129534 0)
(-0.0818199 -0.125007 0)
(-0.0465971 -0.102018 0)
(-0.0167026 -0.0641061 0)
(-0.00133287 -0.0195043 0)
(-0.00158408 0.0308522 0)
(-0.0129039 0.0741403 0)
(-0.0315116 0.101757 0)
(-0.0531926 0.116944 0)
(-0.0764569 0.122443 0)
(-0.0997226 0.120086 0)
(-0.122175 0.110857 0)
(-0.143049 0.0951153 0)
(-0.161678 0.0729615 0)
(-0.177284 0.0445505 0)
(-0.188921 0.0104027 0)
(-0.195392 -0.028306 0)
(-0.19523 -0.0694023 0)
(-0.186804 -0.109356 0)
(-0.168582 -0.142965 0)
(-0.139999 -0.163479 0)
(-0.102191 -0.163677 0)
(-0.0606201 -0.138676 0)
(-0.0227428 -0.0904367 0)
(-0.00201086 -0.0290478 0)
(-0.00160908 0.0375128 0)
(-0.0130781 0.0892516 0)
(-0.0318512 0.121735 0)
(-0.0535578 0.139235 0)
(-0.0766618 0.145423 0)
(-0.0996448 0.142695 0)
(-0.121829 0.13238 0)
(-0.142652 0.114956 0)
(-0.161679 0.0904913 0)
(-0.178368 0.0589765 0)
(-0.191984 0.0206591 0)
(-0.201455 -0.0236452 0)
(-0.205267 -0.0721322 0)
(-0.201434 -0.121481 0)
(-0.187612 -0.166164 0)
(-0.161854 -0.198041 0)
(-0.123567 -0.206757 0)
(-0.0770761 -0.182891 0)
(-0.0306534 -0.12435 0)
(-0.00303683 -0.0421669 0)
(-0.00162216 0.0441947 0)
(-0.0129867 0.104302 0)
(-0.0313604 0.141473 0)
(-0.052271 0.161019 0)
(-0.0741432 0.167676 0)
(-0.095589 0.16448 0)
(-0.116109 0.153191 0)
(-0.135408 0.13445 0)
(-0.153344 0.108332 0)
(-0.169711 0.0746663 0)
(-0.184111 0.0333903 0)
(-0.195785 -0.0151567 0)
(-0.20343 -0.0697871 0)
(-0.204991 -0.127833 0)
(-0.197592 -0.184081 0)
(-0.177898 -0.2297 0)
(-0.143084 -0.251326 0)
(-0.0948481 -0.233647 0)
(-0.0406409 -0.166803 0)
(-0.00457036 -0.0600334 0)
(-0.00169047 0.0507799 0)
(-0.0129266 0.118874 0)
(-0.0304769 0.160261 0)
(-0.0497913 0.181295 0)
(-0.0692633 0.187968 0)
(-0.0877545 0.184027 0)
(-0.105003 0.171755 0)
(-0.121055 0.152005 0)
(-0.136116 0.124906 0)
(-0.15038 0.0901627 0)
(-0.163881 0.0474209 0)
(-0.176319 -0.00349583 0)
(-0.186846 -0.0621732 0)
(-0.193704 -0.126987 0)
(-0.19396 -0.193777 0)
(-0.183273 -0.254153 0)
(-0.156598 -0.292742 0)
(-0.11162 -0.287962 0)
(-0.0525711 -0.217784 0)
(-0.00682462 -0.0839835 0)
(-0.00197344 0.0575938 0)
(-0.0134286 0.133038 0)
(-0.0299312 0.177728 0)
(-0.0469057 0.199202 0)
(-0.0627373 0.205065 0)
(-0.0767472 0.199832 0)
(-0.0889951 0.186387 0)
(-0.0999642 0.165817 0)
(-0.110239 0.138348 0)
(-0.120443 0.103604 0)
(-0.131072 0.0609926 0)
(-0.142357 0.00987069 0)
(-0.154077 -0.0501378 0)
(-0.165092 -0.118666 0)
(-0.173015 -0.193231 0)
(-0.173199 -0.267218 0)
(-0.159118 -0.325144 0)
(-0.123693 -0.340523 0)
(-0.0655952 -0.275538 0)
(-0.0100497 -0.115388 0)
(-0.00271946 0.0648971 0)
(-0.0154646 0.146671 0)
(-0.0309982 0.193215 0)
(-0.0449346 0.21354 0)
(-0.0557165 0.217414 0)
(-0.063534 0.210131 0)
(-0.0688944 0.195215 0)
(-0.0728479 0.173954 0)
(-0.0763708 0.14667 0)
(-0.0805064 0.11294 0)
(-0.0861818 0.072008 0)
(-0.0941434 0.0228781 0)
(-0.104857 -0.0354839 0)
(-0.118003 -0.103925 0)
(-0.132283 -0.181934 0)
(-0.143605 -0.265829 0)
(-0.145387 -0.342457 0)
(-0.126048 -0.383843 0)
(-0.0776334 -0.33566 0)
(-0.014452 -0.155153 0)
(-0.00447453 0.0749508 0)
(-0.0203072 0.161456 0)
(-0.0349101 0.207224 0)
(-0.0448433 0.223632 0)
(-0.048742 0.22363 0)
(-0.0483182 0.213161 0)
(-0.044663 0.196308 0)
(-0.0395442 0.174407 0)
(-0.034313 0.147802 0)
(-0.0303949 0.116008 0)
(-0.0290713 0.0781637 0)
(-0.0315237 0.0330609 0)
(-0.0388608 -0.0207615 0)
(-0.0516162 -0.085073 0)
(-0.0699382 -0.161186 0)
(-0.0910304 -0.248919 0)
(-0.110096 -0.339771 0)
(-0.112428 -0.409326 0)
(-0.0846612 -0.390737 0)
(-0.0199838 -0.203289 0)
(-0.00808846 0.0879538 0)
(-0.030532 0.176429 0)
(-0.0435759 0.217665 0)
(-0.0473932 0.226734 0)
(-0.0411288 0.220827 0)
(-0.0293104 0.206207 0)
(-0.0137324 0.187208 0)
(0.0029685 0.164963 0)
(0.0191535 0.139687 0)
(0.0331075 0.1108 0)
(0.043319 0.0773759 0)
(0.0483013 0.0381418 0)
(0.046437 -0.00852216 0)
(0.0364638 -0.0648439 0)
(0.0167302 -0.133401 0)
(-0.0116567 -0.217201 0)
(-0.0474593 -0.313827 0)
(-0.0751374 -0.407903 0)
(-0.0799801 -0.429384 0)
(-0.0257687 -0.256567 0)
(-0.0146836 0.114282 0)
(-0.0457099 0.197103 0)
(-0.0527467 0.225684 0)
(-0.0450511 0.220987 0)
(-0.0230585 0.206001 0)
(0.00453066 0.186095 0)
(0.0354215 0.164952 0)
(0.0661887 0.142988 0)
(0.0951384 0.119989 0)
(0.120466 0.095189 0)
(0.140624 0.0676001 0)
(0.154006 0.0359998 0)
(0.15871 -0.00116964 0)
(0.152968 -0.0461146 0)
(0.133905 -0.101938 0)
(0.100927 -0.173634 0)
(0.0506223 -0.26476 0)
(-0.00347492 -0.373012 0)
(-0.0521637 -0.438546 0)
(-0.0285601 -0.309527 0)
(-0.0256355 0.142006 0)
(-0.0658368 0.209035 0)
(-0.0486516 0.216198 0)
(-0.0157422 0.19467 0)
(0.032445 0.170903 0)
(0.0818583 0.147597 0)
(0.131205 0.126427 0)
(0.17715 0.106829 0)
(0.218643 0.0879995 0)
(0.254327 0.0690181 0)
(0.283013 0.0489069 0)
(0.303301 0.0266316 0)
(0.313348 0.000908646 0)
(0.311161 -0.0299872 0)
(0.293216 -0.0688676 0)
(0.257439 -0.120736 0)
(0.196056 -0.192985 0)
(0.118036 -0.296215 0)
(0.0174176 -0.395229 0)
(-0.0172405 -0.338787 0)
(-0.0187127 0.214734 0)
(-0.0197511 0.21539 0)
(0.0565198 0.181404 0)
(0.128283 0.140017 0)
(0.204779 0.110066 0)
(0.27258 0.0878279 0)
(0.333829 0.0706701 0)
(0.387159 0.0568543 0)
(0.432937 0.0449339 0)
(0.470905 0.0339265 0)
(0.500655 0.022999 0)
(0.521376 0.0114394 0)
(0.531739 -0.00158346 0)
(0.52997 -0.0170493 0)
(0.512888 -0.0369521 0)
(0.477503 -0.0647 0)
(0.414091 -0.108513 0)
(0.323587 -0.18669 0)
(0.172967 -0.296528 0)
(0.0429306 -0.335008 0)
(0.211371 0.129598 0)
(0.2974 0.100981 0)
(0.451305 0.0674609 0)
(0.543324 0.044268 0)
(0.61792 0.029018 0)
(0.673615 0.0197824 0)
(0.717358 0.0137968 0)
(0.75182 0.00977675 0)
(0.778991 0.00682666 0)
(0.799872 0.00444814 0)
(0.814889 0.00230848 0)
(0.823975 0.000187313 0)
(0.826616 -0.00213719 0)
(0.821797 -0.00485211 0)
(0.807627 -0.00850206 0)
(0.78112 -0.0136822 0)
(0.734239 -0.0229011 0)
(0.658567 -0.0407372 0)
(0.498145 -0.0743788 0)
(0.288344 -0.136224 0)
)
;

boundaryField
{
    movingWall
    {
        type            fixedValue;
        value           uniform (1 0 0);
    }
    fixedWalls
    {
        type            noSlip;
    }
    frontAndBack
    {
        type            empty;
    }
}


// ************************************************************************* //
