/*--------------------------------*- C++ -*----------------------------------*\
| =========                 |                                                 |
| \\      /  F ield         | OpenFOAM: The Open Source CFD Toolbox           |
|  \\    /   O peration     | Version:  4.1                                   |
|   \\  /    A nd           | Web:      www.OpenFOAM.org                      |
|    \\/     M anipulation  |                                                 |
\*---------------------------------------------------------------------------*/
FoamFile
{
    version     2.0;
    format      ascii;
    class       volVectorField;
    location    "0.171";
    object      U;
}
// * * * * * * * * * * * * * * * * * * * * * * * * * * * * * * * * * * * * * //

dimensions      [0 1 -1 0 0 0 0];

internalField   nonuniform List<vector> 
1600
(
(1.46346e-05 -1.62005e-05 0)
(1.27338e-05 3.47147e-05 0)
(-8.53868e-05 0.000127607 0)
(-0.000301777 0.000235088 0)
(-0.000639795 0.00034093 0)
(-0.00109025 0.000435861 0)
(-0.00163692 0.000514691 0)
(-0.0022598 0.000574783 0)
(-0.00293717 0.000615119 0)
(-0.00364697 0.000635729 0)
(-0.00436771 0.000637318 0)
(-0.00507898 0.000621027 0)
(-0.00576186 0.000588278 0)
(-0.00639915 0.000540673 0)
(-0.00697549 0.000479931 0)
(-0.00747749 0.000407848 0)
(-0.00789377 0.000326282 0)
(-0.00821503 0.000237141 0)
(-0.0084341 0.000142388 0)
(-0.00854596 4.40365e-05 0)
(-0.00854782 -5.58365e-05 0)
(-0.00843919 -0.000155096 0)
(-0.00822189 -0.000251548 0)
(-0.00790016 -0.000342952 0)
(-0.00748066 -0.000427036 0)
(-0.00697251 -0.000501524 0)
(-0.00638731 -0.000564173 0)
(-0.00573902 -0.000612826 0)
(-0.00504393 -0.00064547 0)
(-0.00432044 -0.000660318 0)
(-0.00358879 -0.000655907 0)
(-0.00287071 -0.000631225 0)
(-0.00218885 -0.000585878 0)
(-0.00156605 -0.000520323 0)
(-0.0010243 -0.000436212 0)
(-0.000583276 -0.000336909 0)
(-0.000258122 -0.000228342 0)
(-5.63023e-05 -0.000120382 0)
(2.77409e-05 -2.94311e-05 0)
(1.82137e-05 1.83429e-05 0)
(-3.87077e-05 -1.69159e-05 0)
(-0.000223539 0.000212865 0)
(-0.000652539 0.000599054 0)
(-0.0013728 0.0010387 0)
(-0.0023922 0.00147004 0)
(-0.0036895 0.00185658 0)
(-0.00522593 0.0021774 0)
(-0.00695228 0.00242162 0)
(-0.00881408 0.00258484 0)
(-0.010755 0.00266695 0)
(-0.0127194 0.00267065 0)
(-0.0146539 0.00260051 0)
(-0.0165085 0.00246228 0)
(-0.0182374 0.00226253 0)
(-0.0197997 0.00200833 0)
(-0.0211594 0.00170712 0)
(-0.022286 0.0013666 0)
(-0.0231544 0.000994719 0)
(-0.0237456 0.000599619 0)
(-0.0240461 0.000189682 0)
(-0.0240486 -0.000226478 0)
(-0.0237521 -0.000640009 0)
(-0.0231616 -0.00104183 0)
(-0.0222889 -0.00142269 0)
(-0.021152 -0.00177322 0)
(-0.0197755 -0.00208404 0)
(-0.0181907 -0.00234595 0)
(-0.0164346 -0.00255008 0)
(-0.0145507 -0.00268821 0)
(-0.0125873 -0.00275305 0)
(-0.0105976 -0.00273864 0)
(-0.00863788 -0.00264093 0)
(-0.00676653 -0.00245839 0)
(-0.00504164 -0.00219302 0)
(-0.00351835 -0.00185164 0)
(-0.00224503 -0.00144795 0)
(-0.0012581 -0.00100572 0)
(-0.000574878 -0.00056386 0)
(-0.000182465 -0.000185259 0)
(-2.85468e-05 2.86719e-05 0)
(-0.00013467 7.78835e-05 0)
(-0.000620413 0.000634853 0)
(-0.00147708 0.0014391 0)
(-0.0027565 0.00232451 0)
(-0.00446482 0.00318448 0)
(-0.00657056 0.00395249 0)
(-0.00901805 0.0045888 0)
(-0.0117364 0.00507176 0)
(-0.0146463 0.00539204 0)
(-0.0176652 0.00554869 0)
(-0.0207104 0.00554652 0)
(-0.0237023 0.00539417 0)
(-0.026566 0.00510296 0)
(-0.0292323 0.00468596 0)
(-0.0316392 0.00415745 0)
(-0.0337323 0.00353256 0)
(-0.0354651 0.00282706 0)
(-0.0367998 0.00205725 0)
(-0.0377072 0.00123991 0)
(-0.0381671 0.000392289 0)
(-0.0381686 -0.000467865 0)
(-0.0377102 -0.00132235 0)
(-0.0368002 -0.00215255 0)
(-0.0354564 -0.00293949 0)
(-0.0337065 -0.00366406 0)
(-0.0315881 -0.00430718 0)
(-0.0291483 -0.00485019 0)
(-0.0264436 -0.00527522 0)
(-0.0235389 -0.00556575 0)
(-0.020507 -0.00570729 0)
(-0.017427 -0.0056882 0)
(-0.0143828 -0.00550072 0)
(-0.0114604 -0.00514236 0)
(-0.00874493 -0.00461762 0)
(-0.00631672 -0.00394054 0)
(-0.00424565 -0.00313817 0)
(-0.0025843 -0.00225582 0)
(-0.001359 -0.00136486 0)
(-0.000556773 -0.00057487 0)
(-0.000118351 -5.14959e-05 0)
(-0.000249301 0.000292233 0)
(-0.00108798 0.00135505 0)
(-0.00242013 0.00271247 0)
(-0.00428869 0.0041534 0)
(-0.00668993 0.00553366 0)
(-0.00957941 0.00675862 0)
(-0.0128856 0.00776935 0)
(-0.0165193 0.0085325 0)
(-0.020381 0.00903293 0)
(-0.0243668 0.00926846 0)
(-0.0283728 0.00924601 0)
(-0.0322981 0.00897893 0)
(-0.0360475 0.00848501 0)
(-0.0395331 0.00778518 0)
(-0.0426759 0.00690251 0)
(-0.0454061 0.00586165 0)
(-0.0476645 0.00468841 0)
(-0.0494027 0.00340959 0)
(-0.0505833 0.00205282 0)
(-0.0511808 0.000646531 0)
(-0.0511814 -0.000780044 0)
(-0.0505833 -0.00219694 0)
(-0.0493972 -0.00357356 0)
(-0.0476462 -0.0048788 0)
(-0.0453658 -0.00608137 0)
(-0.0426042 -0.00715019 0)
(-0.0394214 -0.00805488 0)
(-0.0358892 -0.00876654 0)
(-0.0320903 -0.00925859 0)
(-0.0281169 -0.00950787 0)
(-0.0240691 -0.009496 0)
(-0.0200525 -0.00921102 0)
(-0.0161753 -0.00864952 0)
(-0.0125447 -0.00781922 0)
(-0.00926132 -0.00674255 0)
(-0.00641368 -0.00546133 0)
(-0.00406991 -0.0040433 0)
(-0.00226855 -0.0025911 0)
(-0.00100519 -0.00125469 0)
(-0.000227619 -0.000246992 0)
(-0.000369773 0.00063536 0)
(-0.00157837 0.00239846 0)
(-0.00340335 0.00445323 0)
(-0.00587171 0.0065597 0)
(-0.00896368 0.00854544 0)
(-0.0126183 0.0102924 0)
(-0.0167469 0.0117247 0)
(-0.0212428 0.0127978 0)
(-0.0259886 0.0134911 0)
(-0.0308624 0.0138013 0)
(-0.0357421 0.0137379 0)
(-0.0405096 0.0133196 0)
(-0.0450532 0.0125714 0)
(-0.0492698 0.0115235 0)
(-0.0530663 0.010209 0)
(-0.0563609 0.00866365 0)
(-0.0590839 0.00692511 0)
(-0.0611784 0.00503246 0)
(-0.0626006 0.00302611 0)
(-0.0633204 0.000947675 0)
(-0.0633217 -0.00116008 0)
(-0.0626026 -0.00325336 0)
(-0.0611757 -0.00528745 0)
(-0.0590681 -0.00721704 0)
(-0.0563216 -0.00899658 0)
(-0.0529927 -0.0105809 0)
(-0.0491519 -0.0119261 0)
(-0.0448834 -0.0129903 0)
(-0.0402838 -0.0137353 0)
(-0.0354611 -0.0141279 0)
(-0.0305325 -0.014142 0)
(-0.0256216 -0.0137608 0)
(-0.0208555 -0.0129796 0)
(-0.0163598 -0.0118093 0)
(-0.012254 -0.0102809 0)
(-0.00864443 -0.00845047 0)
(-0.00561637 -0.00640688 0)
(-0.00322452 -0.00428006 0)
(-0.00147951 -0.00225199 0)
(-0.000343451 -0.000567898 0)
(-0.000489906 0.00110776 0)
(-0.0020678 0.00377069 0)
(-0.00438581 0.00667208 0)
(-0.00745231 0.00955527 0)
(-0.0112278 0.0122285 0)
(-0.0156315 0.0145561 0)
(-0.0205562 0.0164485 0)
(-0.0258771 0.0178524 0)
(-0.0314596 0.0187428 0)
(-0.0371653 0.0191165 0)
(-0.0428565 0.0189861 0)
(-0.0484002 0.0183766 0)
(-0.0536711 0.0173215 0)
(-0.0585535 0.015861 0)
(-0.062943 0.0140397 0)
(-0.066748 0.0119059 0)
(-0.0698906 0.00951047 0)
(-0.0723068 0.00690627 0)
(-0.0739479 0.00414812 0)
(-0.0747801 0.00129245 0)
(-0.0747854 -0.00160276 0)
(-0.0739616 -0.00447815 0)
(-0.0723226 -0.0072732 0)
(-0.0698986 -0.0099266 0)
(-0.0667363 -0.0123768 0)
(-0.0628985 -0.0145628 0)
(-0.0584639 -0.0164254 0)
(-0.0535265 -0.0179082 0)
(-0.0481943 -0.0189599 0)
(-0.0425882 -0.0195359 0)
(-0.0368397 -0.0196012 0)
(-0.0310879 -0.0191329 0)
(-0.0254765 -0.0181244 0)
(-0.0201486 -0.0165888 0)
(-0.0152418 -0.0145645 0)
(-0.0108812 -0.0121206 0)
(-0.00717129 -0.00936376 0)
(-0.00418634 -0.00644649 0)
(-0.00195602 -0.00357494 0)
(-0.000459646 -0.00101563 0)
(-0.000607078 0.00170621 0)
(-0.00254599 0.00546803 0)
(-0.00534903 0.00936763 0)
(-0.00900558 0.0131401 0)
(-0.0134545 0.0165816 0)
(-0.0185932 0.0195448 0)
(-0.024294 0.0219306 0)
(-0.0304132 0.0236799 0)
(-0.0367989 0.0247656 0)
(-0.0432969 0.0251858 0)
(-0.0497552 0.0249581 0)
(-0.0560278 0.0241148 0)
(-0.0619775 0.0226991 0)
(-0.067478 0.0207623 0)
(-0.0724161 0.018362 0)
(-0.076692 0.01556 0)
(-0.0802213 0.0124215 0)
(-0.0829347 0.00901461 0)
(-0.0847793 0.0054098 0)
(-0.0857184 0.00167958 0)
(-0.0857323 -0.00210155 0)
(-0.0848184 -0.00585733 0)
(-0.0829914 -0.00951003 0)
(-0.0802837 -0.0129809 0)
(-0.0767453 -0.016191 0)
(-0.0724438 -0.0190621 0)
(-0.0674641 -0.0215179 0)
(-0.0619078 -0.0234862 0)
(-0.0558924 -0.024901 0)
(-0.0495496 -0.0257047 0)
(-0.043023 -0.0258518 0)
(-0.036466 -0.0253123 0)
(-0.0300377 -0.0240757 0)
(-0.0238983 -0.0221561 0)
(-0.018204 -0.0195971 0)
(-0.0131001 -0.0164781 0)
(-0.00871219 -0.0129204 0)
(-0.0051369 -0.00909393 0)
(-0.00242504 -0.00522293 0)
(-0.000573708 -0.00158802 0)
(-0.000720634 0.00242627 0)
(-0.00301022 0.00748304 0)
(-0.00628763 0.0125329 0)
(-0.0105239 0.017308 0)
(-0.0156356 0.0215985 0)
(-0.021497 0.0252505 0)
(-0.0279585 0.0281599 0)
(-0.0348564 0.030265 0)
(-0.0420213 0.0315395 0)
(-0.0492833 0.0319854 0)
(-0.0564767 0.0316267 0)
(-0.0634436 0.0305049 0)
(-0.0700365 0.0286741 0)
(-0.0761204 0.0261983 0)
(-0.0815742 0.0231489 0)
(-0.0862922 0.0196024 0)
(-0.0901845 0.0156397 0)
(-0.0931778 0.0113449 0)
(-0.0952158 0.00680503 0)
(-0.0962597 0.00210978 0)
(-0.0962882 -0.00264891 0)
(-0.095298 -0.0073769 0)
(-0.0933041 -0.0119782 0)
(-0.0903401 -0.0163556 0)
(-0.086458 -0.0204115 0)
(-0.0817289 -0.0240489 0)
(-0.0762421 -0.0271735 0)
(-0.0701052 -0.0296955 0)
(-0.0634432 -0.0315325 0)
(-0.0563968 -0.0326123 0)
(-0.0491211 -0.0328772 0)
(-0.0417823 -0.0322878 0)
(-0.0345546 -0.030828 0)
(-0.0276157 -0.02851 0)
(-0.0211413 -0.0253805 0)
(-0.0152981 -0.0215259 0)
(-0.0102352 -0.0170784 0)
(-0.00607311 -0.0122214 0)
(-0.00288493 -0.0071923 0)
(-0.000685239 -0.00228194 0)
(-0.000830952 0.00326374 0)
(-0.00346182 0.00980779 0)
(-0.00720363 0.0161593 0)
(-0.01201 0.022051 0)
(-0.0177748 0.0272714 0)
(-0.0243486 0.0316646 0)
(-0.0315586 0.0351255 0)
(-0.0392206 0.0375941 0)
(-0.0471468 0.0390479 0)
(-0.0551517 0.0394954 0)
(-0.0630562 0.0389696 0)
(-0.0706915 0.0375227 0)
(-0.0779006 0.0352218 0)
(-0.0845411 0.0321449 0)
(-0.0904857 0.0283783 0)
(-0.0956238 0.0240145 0)
(-0.0998616 0.0191506 0)
(-0.103123 0.0138878 0)
(-0.105348 0.00833037 0)
(-0.106497 0.00258562 0)
(-0.106547 -0.00323633 0)
(-0.105494 -0.00902281 0)
(-0.103353 -0.0146589 0)
(-0.100157 -0.020028 0)
(-0.0959595 -0.0250129 0)
(-0.0908333 -0.0294969 0)
(-0.0848708 -0.0333662 0)
(-0.0781841 -0.0365119 0)
(-0.0709039 -0.0388333 0)
(-0.0631791 -0.0402419 0)
(-0.0551747 -0.0406652 0)
(-0.0470694 -0.0400522 0)
(-0.0390527 -0.0383783 0)
(-0.0313201 -0.0356514 0)
(-0.0240678 -0.0319176 0)
(-0.0174856 -0.027267 0)
(-0.0117478 -0.0218394 0)
(-0.00699999 -0.0158277 0)
(-0.00333856 -0.00947985 0)
(-0.000794985 -0.00309486 0)
(-0.000938925 0.00421529 0)
(-0.00390419 0.0124356 0)
(-0.00810285 0.0202393 0)
(-0.0134717 0.0273617 0)
(-0.0198823 0.0335927 0)
(-0.0271602 0.0387786 0)
(-0.0351093 0.0428178 0)
(-0.0435238 0.0456554 0)
(-0.052197 0.0472763 0)
(-0.0609277 0.0476988 0)
(-0.0695238 0.0469674 0)
(-0.0778059 0.0451477 0)
(-0.085609 0.0423213 0)
(-0.092784 0.0385819 0)
(-0.0991988 0.0340319 0)
(-0.104739 0.0287808 0)
(-0.109308 0.0229429 0)
(-0.112827 0.0166368 0)
(-0.115236 0.00998444 0)
(-0.116493 0.00311125 0)
(-0.116573 -0.00385424 0)
(-0.115471 -0.0107805 0)
(-0.113201 -0.0175332 0)
(-0.109797 -0.023976 0)
(-0.10531 -0.0299711 0)
(-0.0998154 -0.0353814 0)
(-0.0934058 -0.0400721 0)
(-0.0861964 -0.0439135 0)
(-0.0783227 -0.0467851 0)
(-0.0699401 -0.0485793 0)
(-0.0612231 -0.0492066 0)
(-0.0523623 -0.0486012 0)
(-0.0435623 -0.0467269 0)
(-0.0350373 -0.0435835 0)
(-0.0270052 -0.0392133 0)
(-0.0196803 -0.0337066 0)
(-0.0132633 -0.027207 0)
(-0.00792691 -0.0199143 0)
(-0.00379113 -0.0120848 0)
(-0.000904286 -0.00402558 0)
(-0.00104566 0.00527881 0)
(-0.00434162 0.0153622 0)
(-0.00899289 0.0247676 0)
(-0.0149198 0.0332342 0)
(-0.0219711 0.0405562 0)
(-0.0299473 0.0465855 0)
(-0.0386278 0.0512279 0)
(-0.0477846 0.0544377 0)
(-0.0571921 0.0562113 0)
(-0.0666329 0.0565797 0)
(-0.0759025 0.0556023 0)
(-0.0848114 0.0533606 0)
(-0.0931873 0.049953 0)
(-0.100876 0.0454903 0)
(-0.107741 0.0400927 0)
(-0.113667 0.0338874 0)
(-0.118554 0.0270066 0)
(-0.122323 0.0195865 0)
(-0.124913 0.0117672 0)
(-0.126279 0.00369213 0)
(-0.126398 -0.00449181 0)
(-0.125262 -0.0126342 0)
(-0.122884 -0.0205813 0)
(-0.119295 -0.0281765 0)
(-0.114547 -0.0352614 0)
(-0.108711 -0.0416771 0)
(-0.101883 -0.0472668 0)
(-0.0941787 -0.0518786 0)
(-0.0857358 -0.0553698 0)
(-0.0767157 -0.0576111 0)
(-0.067301 -0.0584931 0)
(-0.057694 -0.0579316 0)
(-0.0481146 -0.0558752 0)
(-0.0387959 -0.0523117 0)
(-0.0299787 -0.0472754 0)
(-0.0219033 -0.040853 0)
(-0.0147985 -0.0331886 0)
(-0.00886538 -0.0244864 0)
(-0.00424894 -0.0150098 0)
(-0.00101475 -0.00507462 0)
(-0.00115234 0.00645344 0)
(-0.00477864 0.0185855 0)
(-0.00988187 0.0297416 0)
(-0.0163656 0.0396652 0)
(-0.0240552 0.0481575 0)
(-0.0327256 0.0550793 0)
(-0.0421308 0.0603475 0)
(-0.0520202 0.0639301 0)
(-0.0621485 0.0658387 0)
(-0.0722829 0.0661214 0)
(-0.0822063 0.0648555 0)
(-0.0917202 0.0621412 0)
(-0.100646 0.0580962 0)
(-0.108825 0.0528504 0)
(-0.11612 0.046543 0)
(-0.122413 0.0393198 0)
(-0.127604 0.0313313 0)
(-0.131613 0.0227319 0)
(-0.13438 0.0136792 0)
(-0.135859 0.00433465 0)
(-0.136026 -0.00513686 0)
(-0.134872 -0.0145664 0)
(-0.132406 -0.0237811 0)
(-0.128659 -0.0326041 0)
(-0.123678 -0.0408561 0)
(-0.117534 -0.0483558 0)
(-0.11032 -0.0549233 0)
(-0.10215 -0.0603827 0)
(-0.0931658 -0.0645668 0)
(-0.083531 -0.067322 0)
(-0.0734357 -0.0685152 0)
(-0.0630932 -0.0680401 0)
(-0.0527383 -0.0658255 0)
(-0.0426237 -0.061843 0)
(-0.0330138 -0.0561142 0)
(-0.0241766 -0.0487181 0)
(-0.0163708 -0.0397959 0)
(-0.00982758 -0.0295538 0)
(-0.00471865 -0.0182614 0)
(-0.0011281 -0.00624435 0)
(-0.00126012 0.00773962 0)
(-0.00521972 0.0221062 0)
(-0.0107778 0.0351615 0)
(-0.0178203 0.046654 0)
(-0.0261483 0.0563939 0)
(-0.0355099 0.0642544 0)
(-0.045633 0.0701679 0)
(-0.0562438 0.0741202 0)
(-0.0670775 0.0761426 0)
(-0.0778854 0.0763045 0)
(-0.088439 0.0747049 0)
(-0.0985317 0.071466 0)
(-0.10798 0.066727 0)
(-0.116622 0.0606392 0)
(-0.124321 0.0533622 0)
(-0.130957 0.0450611 0)
(-0.136433 0.0359052 0)
(-0.140671 0.0260666 0)
(-0.143609 0.0157207 0)
(-0.145204 0.00504585 0)
(-0.145428 -0.00577563 0)
(-0.144272 -0.0165571 0)
(-0.141743 -0.027107 0)
(-0.137867 -0.037229 0)
(-0.132688 -0.0467225 0)
(-0.126272 -0.0553838 0)
(-0.118709 -0.0630086 0)
(-0.110111 -0.0693954 0)
(-0.100619 -0.0743501 0)
(-0.0903977 -0.0776917 0)
(-0.0796441 -0.0792593 0)
(-0.0685807 -0.0789203 0)
(-0.057457 -0.0765787 0)
(-0.0465452 -0.0721844 0)
(-0.0361345 -0.0657417 0)
(-0.0265216 -0.057317 0)
(-0.0179974 -0.0470449 0)
(-0.0108256 -0.0351309 0)
(-0.00520691 -0.02185 0)
(-0.00124601 -0.00753898 0)
(-0.0013701 0.00913895 0)
(-0.00566916 0.0259275 0)
(-0.0116884 0.0410304 0)
(-0.0192944 0.054202 0)
(-0.0282626 0.0652639 0)
(-0.0383127 0.0741054 0)
(-0.0491459 0.0806788 0)
(-0.0604641 0.0849927 0)
(-0.0719831 0.0871031 0)
(-0.0834391 0.0871048 0)
(-0.0945926 0.085123 0)
(-0.10523 0.0813053 0)
(-0.115165 0.0758155 0)
(-0.124236 0.068828 0)
(-0.132304 0.0605243 0)
(-0.139255 0.0510898 0)
(-0.144993 0.0407124 0)
(-0.149441 0.0295821 0)
(-0.152542 0.0178907 0)
(-0.154251 0.00583291 0)
(-0.154542 -0.00639278 0)
(-0.153402 -0.0185832 0)
(-0.150836 -0.0305292 0)
(-0.146865 -0.0420157 0)
(-0.141527 -0.0528213 0)
(-0.134884 -0.0627196 0)
(-0.127019 -0.0714814 0)
(-0.118038 -0.0788777 0)
(-0.108081 -0.0846852 0)
(-0.0973114 -0.0886918 0)
(-0.08593 -0.090705 0)
(-0.0741675 -0.0905605 0)
(-0.062287 -0.088132 0)
(-0.05058 -0.0833418 0)
(-0.0393611 -0.0761707 0)
(-0.0289576 -0.0666675 0)
(-0.0196944 -0.0549554 0)
(-0.011871 -0.0412364 0)
(-0.00572011 -0.0257898 0)
(-0.00137016 -0.00896451 0)
(-0.00148339 0.0106542 0)
(-0.0061311 0.0300546 0)
(-0.0126208 0.0473536 0)
(-0.0207977 0.0623123 0)
(-0.030409 0.0747666 0)
(-0.0411446 0.0846259 0)
(-0.052677 0.0918675 0)
(-0.0646841 0.0965282 0)
(-0.0768618 0.0986942 0)
(-0.0889319 0.098491 0)
(-0.100645 0.0960744 0)
(-0.111784 0.0916214 0)
(-0.12216 0.0853232 0)
(-0.131612 0.07738 0)
(-0.140007 0.0679961 0)
(-0.147233 0.0573779 0)
(-0.1532 0.0457322 0)
(-0.157836 0.0332657 0)
(-0.161085 0.020186 0)
(-0.162905 0.00670271 0)
(-0.16327 -0.00697134 0)
(-0.162165 -0.020618 0)
(-0.159592 -0.0340122 0)
(-0.155565 -0.0469212 0)
(-0.150117 -0.0591039 0)
(-0.1433 -0.0703114 0)
(-0.135188 -0.0802889 0)
(-0.125883 -0.0887787 0)
(-0.115516 -0.0955256 0)
(-0.104249 -0.100283 0)
(-0.0922816 -0.102822 0)
(-0.0798521 -0.102941 0)
(-0.067235 -0.100477 0)
(-0.0547408 -0.0953171 0)
(-0.0427096 -0.0874128 0)
(-0.0315008 -0.0767882 0)
(-0.0214763 -0.06355 0)
(-0.0129745 -0.0478928 0)
(-0.00626432 -0.0300986 0)
(-0.0015021 -0.0105286 0)
(-0.00160105 0.0122891 0)
(-0.00660964 0.0344952 0)
(-0.0135822 0.0541389 0)
(-0.0223392 0.0709895 0)
(-0.032597 0.0849007 0)
(-0.0440129 0.095807 0)
(-0.0562298 0.103717 0)
(-0.0689003 0.108701 0)
(-0.081701 0.110882 0)
(-0.0943403 0.110422 0)
(-0.106562 0.107513 0)
(-0.118144 0.102365 0)
(-0.1289 0.0952005 0)
(-0.138675 0.0862472 0)
(-0.147339 0.075734 0)
(-0.154789 0.0638886 0)
(-0.160942 0.0509362 0)
(-0.165732 0.0370996 0)
(-0.169108 0.0226005 0)
(-0.171031 0.0076612 0)
(-0.171476 -0.00749285 0)
(-0.170427 -0.0226308 0)
(-0.167879 -0.037514 0)
(-0.163842 -0.0518938 0)
(-0.158339 -0.0655108 0)
(-0.151412 -0.0780943 0)
(-0.143126 -0.0893639 0)
(-0.133568 -0.0990321 0)
(-0.122862 -0.106809 0)
(-0.111163 -0.112411 0)
(-0.0986681 -0.115566 0)
(-0.0856178 -0.11603 0)
(-0.0722964 -0.113594 0)
(-0.059032 -0.108106 0)
(-0.0461903 -0.0994763 0)
(-0.0341642 -0.0876975 0)
(-0.0233556 -0.0728534 0)
(-0.0141458 -0.0551259 0)
(-0.00684526 -0.0347971 0)
(-0.00164336 -0.0122406 0)
(-0.00172422 0.0140486 0)
(-0.00710901 0.0392589 0)
(-0.0145796 0.0613956 0)
(-0.0239277 0.0802388 0)
(-0.0348348 0.0956638 0)
(-0.0469227 0.107636 0)
(-0.059803 0.116203 0)
(-0.0731022 0.121475 0)
(-0.0864782 0.12362 0)
(-0.0996275 0.122844 0)
(-0.112288 0.119378 0)
(-0.12424 0.113473 0)
(-0.1353 0.105383 0)
(-0.145319 0.0953682 0)
(-0.15418 0.0836821 0)
(-0.161788 0.0705741 0)
(-0.16807 0.0562873 0)
(-0.17297 0.0410591 0)
(-0.176443 0.0251232 0)
(-0.178456 0.00871266 0)
(-0.178983 -0.00793762 0)
(-0.178009 -0.0245869 0)
(-0.175523 -0.0409854 0)
(-0.171528 -0.0568715 0)
(-0.166037 -0.0719694 0)
(-0.159078 -0.0859882 0)
(-0.150701 -0.098622 0)
(-0.140982 -0.109553 0)
(-0.130027 -0.118455 0)
(-0.117982 -0.125001 0)
(-0.105037 -0.128874 0)
(-0.0914299 -0.129779 0)
(-0.0774524 -0.127454 0)
(-0.0634476 -0.121695 0)
(-0.0498064 -0.112363 0)
(-0.0369564 -0.0994114 0)
(-0.0253423 -0.0828904 0)
(-0.0153936 -0.0629636 0)
(-0.00746828 -0.0399088 0)
(-0.00179538 -0.0141113 0)
(-0.00185415 0.0159388 0)
(-0.00763382 0.0443573 0)
(-0.0156205 0.069135 0)
(-0.0255717 0.0900652 0)
(-0.0371293 0.107051 0)
(-0.0498763 0.120096 0)
(-0.0633901 0.129293 0)
(-0.0772713 0.134806 0)
(-0.0911597 0.136852 0)
(-0.104742 0.135688 0)
(-0.117755 0.131594 0)
(-0.12998 0.124863 0)
(-0.141244 0.11579 0)
(-0.151411 0.104665 0)
(-0.160376 0.091769 0)
(-0.168058 0.0773731 0)
(-0.174397 0.0617369 0)
(-0.17935 0.0451107 0)
(-0.18288 0.0277379 0)
(-0.18496 0.00985882 0)
(-0.185569 -0.00828517 0)
(-0.184688 -0.026447 0)
(-0.182305 -0.0443695 0)
(-0.178411 -0.0617811 0)
(-0.173008 -0.0783926 0)
(-0.166108 -0.0938949 0)
(-0.157745 -0.107958 0)
(-0.147974 -0.120234 0)
(-0.136884 -0.130358 0)
(-0.124603 -0.137957 0)
(-0.111308 -0.142663 0)
(-0.0972324 -0.14412 0)
(-0.0826677 -0.142007 0)
(-0.0679697 -0.136055 0)
(-0.0535531 -0.126067 0)
(-0.039881 -0.11194 0)
(-0.0274441 -0.0936845 0)
(-0.0167256 -0.071435 0)
(-0.00813846 -0.0454596 0)
(-0.00195958 -0.016153 0)
(-0.00199227 0.0179671 0)
(-0.00818931 0.0498043 0)
(-0.016713 0.0773695 0)
(-0.0272803 0.100473 0)
(-0.039487 0.119053 0)
(-0.052873 0.133161 0)
(-0.0669795 0.142946 0)
(-0.0813804 0.148631 0)
(-0.0956991 0.150499 0)
(-0.109616 0.148864 0)
(-0.122868 0.144062 0)
(-0.135247 0.136435 0)
(-0.146593 0.126319 0)
(-0.156786 0.11404 0)
(-0.165738 0.0999057 0)
(-0.173389 0.0842086 0)
(-0.179696 0.0672235 0)
(-0.184627 0.049211 0)
(-0.188162 0.030421 0)
(-0.190279 0.0110979 0)
(-0.190963 -0.00851488 0)
(-0.190194 -0.028168 0)
(-0.187955 -0.0476011 0)
(-0.184228 -0.0665371 0)
(-0.179001 -0.0846771 0)
(-0.172268 -0.101697 0)
(-0.164041 -0.117245 0)
(-0.154352 -0.130942 0)
(-0.143266 -0.142384 0)
(-0.130887 -0.151152 0)
(-0.117373 -0.156817 0)
(-0.102944 -0.158958 0)
(-0.087887 -0.157181 0)
(-0.0725657 -0.151141 0)
(-0.0574157 -0.140566 0)
(-0.0429356 -0.125287 0)
(-0.0296654 -0.105256 0)
(-0.0181481 -0.0805693 0)
(-0.00886056 -0.0514771 0)
(-0.00213732 -0.0183791 0)
(-0.00214029 0.0201424 0)
(-0.00878172 0.0556161 0)
(-0.0178669 0.086113 0)
(-0.0290633 0.111466 0)
(-0.0419136 0.131657 0)
(-0.0559092 0.146796 0)
(-0.0705527 0.157102 0)
(-0.0853914 0.162873 0)
(-0.100035 0.164464 0)
(-0.11416 0.16226 0)
(-0.127511 0.15666 0)
(-0.139895 0.148061 0)
(-0.15117 0.136844 0)
(-0.161239 0.123372 0)
(-0.170038 0.107982 0)
(-0.17753 0.0909852 0)
(-0.183692 0.0726699 0)
(-0.188512 0.0533041 0)
(-0.191984 0.0331406 0)
(-0.194098 0.0124231 0)
(-0.194843 -0.00860688 0)
(-0.194202 -0.0297032 0)
(-0.192151 -0.0506075 0)
(-0.188663 -0.0710417 0)
(-0.183711 -0.0907023 0)
(-0.177268 -0.109254 0)
(-0.169321 -0.126327 0)
(-0.159874 -0.141513 0)
(-0.148959 -0.15437 0)
(-0.136653 -0.164427 0)
(-0.123085 -0.171191 0)
(-0.108452 -0.174167 0)
(-0.0930309 -0.172875 0)
(-0.0771851 -0.166881 0)
(-0.0613672 -0.155822 0)
(-0.0461105 -0.139441 0)
(-0.032007 -0.117617 0)
(-0.0196662 -0.0903938 0)
(-0.00963905 -0.0579898 0)
(-0.00232996 -0.0208046 0)
(-0.00230033 0.0224756 0)
(-0.00941861 0.0618121 0)
(-0.0190933 0.0953806 0)
(-0.0309316 0.123044 0)
(-0.044414 0.14484 0)
(-0.0589773 0.160953 0)
(-0.0740831 0.171686 0)
(-0.0892531 0.177429 0)
(-0.104086 0.178623 0)
(-0.118262 0.175735 0)
(-0.131538 0.169237 0)
(-0.143743 0.159584 0)
(-0.154762 0.147211 0)
(-0.164526 0.132516 0)
(-0.173002 0.115865 0)
(-0.18018 0.0975872 0)
(-0.186063 0.077982 0)
(-0.190663 0.0573206 0)
(-0.19399 0.0358545 0)
(-0.196047 0.013822 0)
(-0.196832 -0.00854325 0)
(-0.196329 -0.0310035 0)
(-0.194511 -0.0533082 0)
(-0.191341 -0.0751846 0)
(-0.186774 -0.0963302 0)
(-0.180761 -0.116404 0)
(-0.173259 -0.135022 0)
(-0.16424 -0.151752 0)
(-0.153699 -0.166114 0)
(-0.141673 -0.177582 0)
(-0.128254 -0.185597 0)
(-0.113609 -0.189579 0)
(-0.0979905 -0.188952 0)
(-0.0817552 -0.183173 0)
(-0.0653656 -0.171769 0)
(-0.0493868 -0.154375 0)
(-0.034465 -0.130773 0)
(-0.021283 -0.100933 0)
(-0.0104781 -0.065027 0)
(-0.00253885 -0.0234458 0)
(-0.00247496 0.0249799 0)
(-0.0101093 0.0684146 0)
(-0.0204056 0.105188 0)
(-0.0328974 0.135204 0)
(-0.0469916 0.158569 0)
(-0.062064 0.175565 0)
(-0.0775331 0.186599 0)
(-0.0928967 0.192169 0)
(-0.107748 0.192821 0)
(-0.121778 0.189115 0)
(-0.134767 0.181605 0)
(-0.146571 0.170816 0)
(-0.157111 0.157233 0)
(-0.166355 0.141296 0)
(-0.174306 0.123394 0)
(-0.180988 0.103876 0)
(-0.186435 0.0830466 0)
(-0.190684 0.061176 0)
(-0.193766 0.0385094 0)
(-0.195701 0.0152742 0)
(-0.196496 -0.00830944 0)
(-0.196138 -0.0320186 0)
(-0.194597 -0.0556171 0)
(-0.191826 -0.0788446 0)
(-0.187763 -0.101406 0)
(-0.182335 -0.122962 0)
(-0.175467 -0.143121 0)
(-0.16709 -0.161429 0)
(-0.157159 -0.177373 0)
(-0.14566 -0.190373 0)
(-0.132641 -0.1998 0)
(-0.118221 -0.204981 0)
(-0.102621 -0.205229 0)
(-0.0861756 -0.199877 0)
(-0.0693495 -0.188313 0)
(-0.0527338 -0.170039 0)
(-0.0370293 -0.144714 0)
(-0.0229995 -0.112204 0)
(-0.0113812 -0.0726174 0)
(-0.00276526 -0.0263202 0)
(-0.00266737 0.0276717 0)
(-0.0108649 0.0754501 0)
(-0.0218195 0.115552 0)
(-0.0349735 0.147935 0)
(-0.0496468 0.172799 0)
(-0.0651472 0.190545 0)
(-0.0808488 0.201712 0)
(-0.09623 0.206927 0)
(-0.110887 0.206861 0)
(-0.124529 0.202184 0)
(-0.136969 0.193541 0)
(-0.148106 0.18153 0)
(-0.157904 0.166691 0)
(-0.166377 0.149504 0)
(-0.173569 0.130385 0)
(-0.179544 0.109691 0)
(-0.184373 0.0877308 0)
(-0.18812 0.0647693 0)
(-0.190842 0.041039 0)
(-0.192576 0.0167505 0)
(-0.19334 -0.00789598 0)
(-0.193126 -0.0326992 0)
(-0.191904 -0.0574444 0)
(-0.189617 -0.0818911 0)
(-0.186185 -0.10576 0)
(-0.18151 -0.128721 0)
(-0.175483 -0.150382 0)
(-0.167993 -0.170277 0)
(-0.158942 -0.187862 0)
(-0.148264 -0.202508 0)
(-0.135942 -0.213512 0)
(-0.122041 -0.220103 0)
(-0.106731 -0.221471 0)
(-0.0903106 -0.216799 0)
(-0.0732322 -0.205316 0)
(-0.0561048 -0.186353 0)
(-0.0396814 -0.159409 0)
(-0.0248131 -0.124217 0)
(-0.0123512 -0.080788 0)
(-0.00301038 -0.0294465 0)
(-0.00288141 0.0305709 0)
(-0.0116991 0.0829496 0)
(-0.0233528 0.126488 0)
(-0.0371718 0.161218 0)
(-0.0523737 0.187464 0)
(-0.0681906 0.205775 0)
(-0.0839533 0.216856 0)
(-0.0991274 0.221494 0)
(-0.113322 0.220503 0)
(-0.126281 0.214681 0)
(-0.137863 0.204772 0)
(-0.148019 0.191455 0)
(-0.156769 0.175326 0)
(-0.164179 0.156902 0)
(-0.170345 0.136619 0)
(-0.175376 0.114844 0)
(-0.179381 0.091881 0)
(-0.182457 0.0679828 0)
(-0.184686 0.0433638 0)
(-0.186126 0.0182115 0)
(-0.186809 -0.00730045 0)
(-0.186733 -0.0329994 0)
(-0.185867 -0.0586995 0)
(-0.184147 -0.0841881 0)
(-0.181477 -0.109211 0)
(-0.177734 -0.133455 0)
(-0.172774 -0.156539 0)
(-0.166439 -0.177993 0)
(-0.158576 -0.197251 0)
(-0.149053 -0.213641 0)
(-0.137783 -0.226386 0)
(-0.124756 -0.234614 0)
(-0.110073 -0.237376 0)
(-0.0939783 -0.23369 0)
(-0.0768933 -0.222588 0)
(-0.0594308 -0.203194 0)
(-0.0423907 -0.174803 0)
(-0.0267158 -0.136967 0)
(-0.0133893 -0.0895629 0)
(-0.00327508 -0.0328446 0)
(-0.00312162 0.0337024 0)
(-0.0126275 0.0909487 0)
(-0.0250242 0.13801 0)
(-0.0395011 0.175021 0)
(-0.0551545 0.202468 0)
(-0.0711352 0.221098 0)
(-0.0867342 0.231817 0)
(-0.101416 0.235606 0)
(-0.11482 0.23345 0)
(-0.126738 0.226289 0)
(-0.137093 0.214978 0)
(-0.145902 0.200278 0)
(-0.153251 0.182841 0)
(-0.159272 0.163216 0)
(-0.164116 0.141855 0)
(-0.16794 0.119127 0)
(-0.170895 0.0953245 0)
(-0.173114 0.0706826 0)
(-0.174705 0.0453906 0)
(-0.175748 0.0196065 0)
(-0.176289 -0.0065295 0)
(-0.176335 -0.0328798 0)
(-0.175856 -0.0592952 0)
(-0.174783 -0.0855989 0)
(-0.173006 -0.11157 0)
(-0.170379 -0.136926 0)
(-0.166722 -0.161305 0)
(-0.161832 -0.184244 0)
(-0.155496 -0.205169 0)
(-0.147508 -0.223372 0)
(-0.137699 -0.23801 0)
(-0.125968 -0.248108 0)
(-0.112325 -0.25257 0)
(-0.0969363 -0.250223 0)
(-0.0801665 -0.239873 0)
(-0.0626123 -0.220389 0)
(-0.0451085 -0.190805 0)
(-0.0286916 -0.150432 0)
(-0.014494 -0.0989607 0)
(-0.00355971 -0.0365356 0)
(-0.00339308 0.0370965 0)
(-0.0136669 0.0994878 0)
(-0.0268511 0.150125 0)
(-0.0419602 0.189287 0)
(-0.0579498 0.21768 0)
(-0.0738849 0.236302 0)
(-0.0890264 0.246315 0)
(-0.102856 0.248933 0)
(-0.115062 0.24534 0)
(-0.125512 0.236631 0)
(-0.134208 0.223783 0)
(-0.141251 0.207638 0)
(-0.146808 0.188898 0)
(-0.151079 0.16814 0)
(-0.154277 0.145824 0)
(-0.156613 0.122309 0)
(-0.158279 0.0978715 0)
(-0.159444 0.0727206 0)
(-0.160243 0.0470137 0)
(-0.160777 0.0208729 0)
(-0.161107 -0.00560078 0)
(-0.16125 -0.0323114 0)
(-0.161181 -0.059153 0)
(-0.160827 -0.0859927 0)
(-0.160068 -0.112653 0)
(-0.158738 -0.13889 0)
(-0.156626 -0.164376 0)
(-0.153484 -0.188672 0)
(-0.149038 -0.211205 0)
(-0.143005 -0.231249 0)
(-0.135121 -0.247906 0)
(-0.125178 -0.260101 0)
(-0.113073 -0.266588 0)
(-0.0988616 -0.265986 0)
(-0.0828224 -0.256835 0)
(-0.0655052 -0.237696 0)
(-0.0477594 -0.207274 0)
(-0.0307109 -0.164563 0)
(-0.0156589 -0.108991 0)
(-0.00386345 -0.0405415 0)
(-0.00370098 0.0407903 0)
(-0.014834 0.108611 0)
(-0.028844 0.162827 0)
(-0.0445289 0.203927 0)
(-0.060682 0.232911 0)
(-0.0762842 0.251108 0)
(-0.0905843 0.259994 0)
(-0.103107 0.261065 0)
(-0.113623 0.255731 0)
(-0.122098 0.245261 0)
(-0.128638 0.230753 0)
(-0.133447 0.213125 0)
(-0.136779 0.193124 0)
(-0.138914 0.171342 0)
(-0.140129 0.148235 0)
(-0.140686 0.124145 0)
(-0.140821 0.0993208 0)
(-0.140732 0.0739384 0)
(-0.140584 0.0481171 0)
(-0.140494 0.0219371 0)
(-0.140538 -0.00454456 0)
(-0.140747 -0.0312789 0)
(-0.141098 -0.058209 0)
(-0.141522 -0.0852529 0)
(-0.141892 -0.112284 0)
(-0.142029 -0.139111 0)
(-0.141696 -0.165451 0)
(-0.140606 -0.190904 0)
(-0.138427 -0.214922 0)
(-0.134797 -0.236775 0)
(-0.129351 -0.255532 0)
(-0.121758 -0.270028 0)
(-0.111777 -0.278872 0)
(-0.0993223 -0.28046 0)
(-0.0845425 -0.273034 0)
(-0.0679004 -0.254786 0)
(-0.0502267 -0.224005 0)
(-0.0327228 -0.179271 0)
(-0.0168688 -0.119652 0)
(-0.00418339 -0.0448844 0)
(-0.00404968 0.0448284 0)
(-0.0161406 0.118361 0)
(-0.030997 0.176088 0)
(-0.0471491 0.218798 0)
(-0.0632084 0.247896 0)
(-0.0780834 0.265137 0)
(-0.0910415 0.272393 0)
(-0.101691 0.271491 0)
(-0.109921 0.264096 0)
(-0.11583 0.251659 0)
(-0.119656 0.235396 0)
(-0.121717 0.21629 0)
(-0.122369 0.195118 0)
(-0.121971 0.172472 0)
(-0.120864 0.148789 0)
(-0.119358 0.124384 0)
(-0.117727 0.0994673 0)
(-0.116197 0.0741738 0)
(-0.114951 0.0485787 0)
(-0.114127 0.0227163 0)
(-0.113812 -0.00340454 0)
(-0.114046 -0.0297851 0)
(-0.114817 -0.0564213 0)
(-0.116059 -0.0832871 0)
(-0.117648 -0.110315 0)
(-0.119397 -0.137374 0)
(-0.121056 -0.164243 0)
(-0.122305 -0.190576 0)
(-0.122764 -0.21587 0)
(-0.121997 -0.239422 0)
(-0.119537 -0.260287 0)
(-0.11492 -0.277241 0)
(-0.107742 -0.288756 0)
(-0.0977394 -0.293007 0)
(-0.0848832 -0.287905 0)
(-0.0694926 -0.271212 0)
(-0.0523293 -0.240705 0)
(-0.0346401 -0.194416 0)
(-0.018093 -0.130917 0)
(-0.00451269 -0.0495859 0)
(-0.00444058 0.0492631 0)
(-0.0175861 0.128775 0)
(-0.0332695 0.189837 0)
(-0.0496941 0.233677 0)
(-0.0652774 0.262256 0)
(-0.0788841 0.277885 0)
(-0.0898503 0.282925 0)
(-0.0979231 0.279585 0)
(-0.103161 0.26981 0)
(-0.105834 0.255231 0)
(-0.106333 0.237168 0)
(-0.105109 0.216651 0)
(-0.102618 0.194462 0)
(-0.0993 0.171175 0)
(-0.0955528 0.147192 0)
(-0.0917277 0.122783 0)
(-0.0881243 0.0981143 0)
(-0.0849901 0.0732701 0)
(-0.0825219 0.0482775 0)
(-0.0808667 0.0231219 0)
(-0.080123 -0.0022375 0)
(-0.0803399 -0.0278534 0)
(-0.0815155 -0.0537763 0)
(-0.0835933 -0.0800386 0)
(-0.0864577 -0.106636 0)
(-0.0899269 -0.133507 0)
(-0.0937463 -0.160501 0)
(-0.0975827 -0.187349 0)
(-0.10102 -0.213615 0)
(-0.103562 -0.23865 0)
(-0.104647 -0.261534 0)
(-0.103675 -0.281017 0)
(-0.100064 -0.295468 0)
(-0.0933334 -0.30285 0)
(-0.0832219 -0.300734 0)
(-0.0698332 -0.286387 0)
(-0.0537857 -0.256959 0)
(-0.0363169 -0.209778 0)
(-0.0192738 -0.142731 0)
(-0.00483745 -0.0546648 0)
(-0.00486806 0.054153 0)