/*--------------------------------*- C++ -*----------------------------------*\
| =========                 |                                                 |
| \\      /  F ield         | OpenFOAM: The Open Source CFD Toolbox           |
|  \\    /   O peration     | Version:  4.1                                   |
|   \\  /    A nd           | Web:      www.OpenFOAM.org                      |
|    \\/     M anipulation  |                                                 |
\*---------------------------------------------------------------------------*/
FoamFile
{
    version     2.0;
    format      ascii;
    class       volVectorField;
    location    "3.25";
    object      U;
}
// * * * * * * * * * * * * * * * * * * * * * * * * * * * * * * * * * * * * * //

dimensions      [0 1 -1 0 0 0 0];

internalField   nonuniform List<vector> 
400
(
(0.00012306 -0.000120373 0)
(-0.000196592 0.000105047 0)
(-0.00140326 0.000292465 0)
(-0.00315452 0.000424043 0)
(-0.00526311 0.000481665 0)
(-0.00746908 0.000492867 0)
(-0.00960758 0.000464021 0)
(-0.0115103 0.000401398 0)
(-0.0130295 0.000302856 0)
(-0.0140128 0.00016747 0)
(-0.0143226 -2.17506e-06 0)
(-0.0138562 -0.000194386 0)
(-0.0125806 -0.000387164 0)
(-0.0105712 -0.000547563 0)
(-0.00802515 -0.000640232 0)
(-0.00528039 -0.000630516 0)
(-0.00272879 -0.000510089 0)
(-0.000821482 -0.000278881 0)
(0.000206073 -1.77166e-05 0)
(0.000215394 0.000202417 0)
(-0.000101844 0.000188691 0)
(-0.00171333 0.00165128 0)
(-0.00515831 0.00293617 0)
(-0.00971291 0.00381465 0)
(-0.0149845 0.00422521 0)
(-0.0204253 0.0042518 0)
(-0.0256397 0.00394231 0)
(-0.0302274 0.00332921 0)
(-0.033832 0.0024209 0)
(-0.0361074 0.00123411 0)
(-0.0367571 -0.00018282 0)
(-0.0355782 -0.00172515 0)
(-0.0325264 -0.00322342 0)
(-0.0277879 -0.0044518 0)
(-0.0218021 -0.00517059 0)
(-0.0152891 -0.00517604 0)
(-0.00908415 -0.00440243 0)
(-0.00413076 -0.00293168 0)
(-0.000942671 -0.00118963 0)
(6.96803e-05 0.000235155 0)
(-0.000334229 0.00146211 0)
(-0.00334279 0.00516744 0)
(-0.00892316 0.00816762 0)
(-0.0159388 0.0101507 0)
(-0.0238474 0.011051 0)
(-0.0319069 0.0110111 0)
(-0.0395725 0.0101301 0)
(-0.0462884 0.00847737 0)
(-0.0515561 0.00608888 0)
(-0.0548965 0.00302608 0)
(-0.0559007 -0.000572802 0)
(-0.0542861 -0.00444412 0)
(-0.0499793 -0.00818196 0)
(-0.0432109 -0.0112607 0)
(-0.0345517 -0.0131242 0)
(-0.0249651 -0.0133074 0)
(-0.0155972 -0.0116433 0)
(-0.00779523 -0.00833246 0)
(-0.00234658 -0.0042342 0)
(-9.02438e-05 -0.000511781 0)
(-0.000550421 0.0035399 0)
(-0.00488285 0.0103395 0)
(-0.0124657 0.0154734 0)
(-0.0217185 0.0187298 0)
(-0.0319635 0.0201349 0)
(-0.0423091 0.0199224 0)
(-0.0521195 0.0182556 0)
(-0.0607404 0.0152431 0)
(-0.0675793 0.0109504 0)
(-0.0720544 0.00548718 0)
(-0.0736507 -0.000908229 0)
(-0.0719808 -0.00779147 0)
(-0.0668825 -0.0144797 0)
(-0.0585438 -0.0200828 0)
(-0.047569 -0.0236372 0)
(-0.0350903 -0.0243122 0)
(-0.0225382 -0.0217482 0)
(-0.0117256 -0.016221 0)
(-0.00381377 -0.0090377 0)
(-0.000235008 -0.00195717 0)
(-0.00073228 0.00639362 0)
(-0.00627131 0.0171455 0)
(-0.0157219 0.0248361 0)
(-0.027063 0.0295272 0)
(-0.039489 0.0314496 0)
(-0.0519858 0.0309789 0)
(-0.0638665 0.028363 0)
(-0.0744191 0.0237493 0)
(-0.0829877 0.017221 0)
(-0.0888992 0.00891909 0)
(-0.0915146 -0.000834083 0)
(-0.0902907 -0.0114189 0)
(-0.0848924 -0.0218554 0)
(-0.0753588 -0.0308266 0)
(-0.0622228 -0.0368443 0)
(-0.0467238 -0.0385478 0)
(-0.0305937 -0.0352112 0)
(-0.0162559 -0.0270726 0)
(-0.00542766 -0.0158974 0)
(-0.00036114 -0.00415324 0)
(-0.000896183 0.00991827 0)
(-0.00754342 0.0254113 0)
(-0.0187377 0.0360572 0)
(-0.0320449 0.042341 0)
(-0.0465482 0.0448145 0)
(-0.0611385 0.044058 0)
(-0.0751124 0.0404292 0)
(-0.0877353 0.0341083 0)
(-0.098314 0.0251694 0)
(-0.106091 0.0137415 0)
(-0.110284 0.00018138 0)
(-0.110138 -0.0147581 0)
(-0.105056 -0.0298118 0)
(-0.0948032 -0.0431879 0)
(-0.0797031 -0.0527352 0)
(-0.0609974 -0.0563291 0)
(-0.0407041 -0.0525866 0)
(-0.02202 -0.0414817 0)
(-0.00747796 -0.0252191 0)
(-0.000516807 -0.00719717 0)
(-0.00104553 0.0140724 0)
(-0.0087173 0.0350558 0)
(-0.0215359 0.049049 0)
(-0.0366863 0.0570995 0)
(-0.0531593 0.060197 0)
(-0.0697817 0.059194 0)
(-0.085866 0.0545862 0)
(-0.100691 0.0465765 0)
(-0.113556 0.0351908 0)
(-0.123635 0.0204823 0)
(-0.13 0.00276388 0)
(-0.131651 -0.017157 0)
(-0.127653 -0.0377812 0)
(-0.11737 -0.0568266 0)
(-0.100743 -0.0713425 0)
(-0.0788235 -0.0781463 0)
(-0.0537939 -0.0747599 0)
(-0.0297308 -0.0604797 0)
(-0.010308 -0.0378134 0)
(-0.00074916 -0.0113961 0)
(-0.00118472 0.0188008 0)
(-0.00980237 0.0459633 0)
(-0.024111 0.0636665 0)
(-0.0409402 0.0736521 0)
(-0.0592037 0.0774694 0)
(-0.0776952 0.0763142 0)
(-0.0957761 0.0708532 0)
(-0.112778 0.0613009 0)
(-0.128032 0.0475907 0)
(-0.140684 0.0296237 0)
(-0.149689 0.00756864 0)
(-0.153823 -0.0178273 0)
(-0.151784 -0.044937 0)
(-0.142445 -0.071042 0)
(-0.125168 -0.0923155 0)
(-0.10052 -0.104217 0)
(-0.0705363 -0.102583 0)
(-0.0400917 -0.0853247 0)
(-0.0143189 -0.0548149 0)
(-0.00112289 -0.0172389 0)
(-0.00131641 0.0240663 0)
(-0.0107984 0.058029 0)
(-0.0264287 0.0797508 0)
(-0.044692 0.0917964 0)
(-0.0644306 0.0964098 0)
(-0.0844334 0.0952065 0)
(-0.10414 0.0890658 0)
(-0.12298 0.0782087 0)
(-0.140365 0.0624383 0)
(-0.155483 0.041432 0)
(-0.167257 0.0151101 0)
(-0.174321 -0.0159795 0)
(-0.175077 -0.0502481 0)
(-0.167896 -0.0847035 0)
(-0.151407 -0.114706 0)
(-0.125319 -0.134168 0)
(-0.0909886 -0.13657 0)
(-0.0536292 -0.117348 0)
(-0.01995 -0.077694 0)
(-0.00172241 -0.0254572 0)
(-0.00144744 0.0298153 0)
(-0.0117225 0.0710995 0)
(-0.0284682 0.0970487 0)
(-0.0478133 0.111176 0)
(-0.068518 0.116577 0)
(-0.0893949 0.115371 0)
(-0.109989 0.108705 0)
(-0.129871 0.0968145 0)
(-0.148601 0.0793565 0)
(-0.165505 0.0557389 0)
(-0.179604 0.0255512 0)
(-0.189559 -0.0109963 0)
(-0.193657 -0.0525673 0)
(-0.189884 -0.0961875 0)
(-0.176117 -0.136695 0)
(-0.150869 -0.166536 0)
(-0.114114 -0.176291 0)
(-0.0704251 -0.157489 0)
(-0.0276539 -0.108089 0)
(-0.00267008 -0.0370468 0)
(-0.00160517 0.0360558 0)
(-0.0126492 0.0850645 0)
(-0.0302763 0.115282 0)
(-0.0502283 0.13131 0)
(-0.0711583 0.137304 0)
(-0.0919425 0.13598 0)
(-0.112256 0.128823 0)
(-0.131867 0.116113 0)
(-0.15055 0.0973784 0)
(-0.167882 0.0717559 0)
(-0.18315 0.0384723 0)
(-0.195263 -0.00270279 0)
(-0.202664 -0.0509088 0)
(-0.203228 -0.103584 0)
(-0.194269 -0.15559 0)
(-0.172968 -0.198434 0)
(-0.137282 -0.219707 0)
(-0.0896783 -0.205598 0)
(-0.0377913 -0.147481 0)
(-0.00414155 -0.0533057 0)
(-0.00184162 0.0427864 0)
(-0.0137784 0.0997399 0)
(-0.0320792 0.134017 0)
(-0.0520548 0.151466 0)
(-0.0722223 0.157586 0)
(-0.0916061 0.155785 0)
(-0.11005 0.14798 0)
(-0.127592 0.134534 0)
(-0.144291 0.114904 0)
(-0.160084 0.0880054 0)
(-0.174682 0.0527346 0)
(-0.187462 0.00838681 0)
(-0.197326 -0.0448236 0)
(-0.202413 -0.10516 0)
(-0.199901 -0.16823 0)
(-0.185867 -0.225622 0)
(-0.156031 -0.262667 0)
(-0.109175 -0.259503 0)
(-0.0503854 -0.196529 0)
(-0.00637496 -0.0757869 0)
(-0.00229677 0.050389 0)
(-0.0155065 0.115312 0)
(-0.03431 0.153018 0)
(-0.0536041 0.170898 0)
(-0.0717579 0.176247 0)
(-0.0881206 0.173254 0)
(-0.102771 0.164367 0)
(-0.116112 0.150073 0)
(-0.128551 0.12983 0)
(-0.140472 0.102418 0)
(-0.152111 0.066489 0)
(-0.163467 0.0209119 0)
(-0.174144 -0.0348044 0)
(-0.18292 -0.100042 0)
(-0.187425 -0.171867 0)
(-0.183252 -0.24329 0)
(-0.164403 -0.299095 0)
(-0.124897 -0.314263 0)
(-0.0646623 -0.254123 0)
(-0.00965193 -0.106166 0)
(-0.00319326 0.0590913 0)
(-0.0186315 0.1316 0)
(-0.037867 0.171559 0)
(-0.0556104 0.188315 0)
(-0.0701283 0.191589 0)
(-0.0814821 0.186407 0)
(-0.0901039 0.175813 0)
(-0.0969027 0.160434 0)
(-0.102682 0.13979 0)
(-0.108311 0.112616 0)
(-0.114573 0.0774366 0)
(-0.122127 0.0328093 0)
(-0.131393 -0.0223797 0)
(-0.142036 -0.0886947 0)
(-0.152734 -0.165094 0)
(-0.15946 -0.247304 0)
(-0.155824 -0.321983 0)
(-0.131065 -0.362031 0)
(-0.0784233 -0.316169 0)
(-0.0142066 -0.145678 0)
(-0.00504669 0.0710312 0)
(-0.0242132 0.150064 0)
(-0.0435234 0.189894 0)
(-0.0583382 0.202781 0)
(-0.0669746 0.201943 0)
(-0.0708618 0.193151 0)
(-0.0709283 0.180023 0)
(-0.0687565 0.163233 0)
(-0.0655495 0.14236 0)
(-0.0626416 0.116143 0)
(-0.0613013 0.0830742 0)
(-0.0627711 0.0415446 0)
(-0.0682486 -0.00998975 0)
(-0.0783486 -0.0730695 0)
(-0.0932128 -0.148532 0)
(-0.11001 -0.235575 0)
(-0.123863 -0.3252 0)
(-0.120473 -0.393211 0)
(-0.0872756 -0.374997 0)
(-0.0199955 -0.194579 0)
(-0.00865602 0.086127 0)
(-0.0345418 0.169218 0)
(-0.0526167 0.20536 0)
(-0.0617116 0.21102 0)
(-0.0605894 0.203959 0)
(-0.0533769 0.19038 0)
(-0.0416348 0.174218 0)
(-0.0277766 0.156013 0)
(-0.0133099 0.135317 0)
(8.1016e-05 0.110893 0)
(0.0108072 0.0812702 0)
(0.0172195 0.0448252 0)
(0.0175096 -0.000165232 0)
(0.0102502 -0.0557965 0)
(-0.00627058 -0.124305 0)
(-0.0309025 -0.208197 0)
(-0.0622134 -0.304472 0)
(-0.0847037 -0.3975 0)
(-0.0840021 -0.418389 0)
(-0.0260968 -0.249626 0)
(-0.0150793 0.114351 0)
(-0.0488686 0.193906 0)
(-0.0602784 0.218412 0)
(-0.0573533 0.210564 0)
(-0.0402097 0.194155 0)
(-0.017067 0.174602 0)
(0.010085 0.155285 0)
(0.0381005 0.136147 0)
(0.0654417 0.11646 0)
(0.0903335 0.0949486 0)
(0.111133 0.0701983 0)
(0.126045 0.0406941 0)
(0.132929 0.00475958 0)
(0.129806 -0.0397695 0)
(0.113651 -0.095796 0)
(0.0838599 -0.168001 0)
(0.0371491 -0.259446 0)
(-0.0127623 -0.3674 0)
(-0.0567108 -0.432262 0)
(-0.0291634 -0.305029 0)
(-0.0256763 0.14317 0)
(-0.0671525 0.208651 0)
(-0.0526766 0.212918 0)
(-0.0231916 0.188866 0)
(0.0210533 0.16374 0)
(0.0665394 0.140317 0)
(0.11237 0.120086 0)
(0.155564 0.102167 0)
(0.195304 0.0854102 0)
(0.230317 0.0685543 0)
(0.259371 0.0503228 0)
(0.280908 0.0294638 0)
(0.292855 0.0045829 0)
(0.292988 -0.0260552 0)
(0.27756 -0.065168 0)
(0.244407 -0.117608 0)
(0.185716 -0.190449 0)
(0.110692 -0.293943 0)
(0.0134315 -0.392641 0)
(-0.0179451 -0.336704 0)
(-0.0184309 0.215881 0)
(-0.01918 0.216148 0)
(0.0563201 0.180685 0)
(0.126309 0.137839 0)
(0.200151 0.106992 0)
(0.26492 0.0845082 0)
(0.323202 0.0676795 0)
(0.374031 0.0546087 0)
(0.418063 0.0436687 0)
(0.455183 0.0336958 0)
(0.484997 0.0236947 0)
(0.506586 0.0128319 0)
(0.518425 0.000206977 0)
(0.518507 -0.0151741 0)
(0.503405 -0.0352702 0)
(0.469967 -0.0634246 0)
(0.408313 -0.107724 0)
(0.31951 -0.186297 0)
(0.170588 -0.296165 0)
(0.0424105 -0.334641 0)
(0.21165 0.130023 0)
(0.298341 0.101374 0)
(0.452488 0.0675394 0)
(0.544034 0.0440212 0)
(0.617477 0.0285683 0)
(0.671653 0.0192709 0)
(0.713824 0.0133472 0)
(0.746945 0.00947374 0)
(0.773205 0.00671232 0)
(0.793708 0.00452449 0)
(0.80888 0.00254335 0)
(0.818574 0.000525364 0)
(0.822138 -0.00176281 0)
(0.818388 -0.00450565 0)
(0.805268 -0.00823748 0)
(0.779653 -0.0135331 0)
(0.733412 -0.0228743 0)
(0.65812 -0.0408107 0)
(0.497887 -0.0744847 0)
(0.288296 -0.136317 0)
)
;

boundaryField
{
    movingWall
    {
        type            fixedValue;
        value           uniform (1 0 0);
    }
    fixedWalls
    {
        type            noSlip;
    }
    frontAndBack
    {
        type            empty;
    }
}


// ************************************************************************* //
