/*--------------------------------*- C++ -*----------------------------------*\
| =========                 |                                                 |
| \\      /  F ield         | OpenFOAM: The Open Source CFD Toolbox           |
|  \\    /   O peration     | Version:  4.1                                   |
|   \\  /    A nd           | Web:      www.OpenFOAM.org                      |
|    \\/     M anipulation  |                                                 |
\*---------------------------------------------------------------------------*/
FoamFile
{
    version     2.0;
    format      ascii;
    class       volVectorField;
    location    "0.0405";
    object      U;
}
// * * * * * * * * * * * * * * * * * * * * * * * * * * * * * * * * * * * * * //

dimensions      [0 1 -1 0 0 0 0];

internalField   nonuniform List<vector> 
6400
(
(6.50025e-06 -6.46537e-06 0)
(2.40556e-05 -8.81196e-06 0)
(3.74416e-05 -5.04112e-06 0)
(4.15606e-05 3.42965e-06 0)
(3.30169e-05 1.48634e-05 0)
(9.89642e-06 2.79375e-05 0)
(-2.86644e-05 4.17047e-05 0)
(-8.27772e-05 5.55029e-05 0)
(-0.000152031 6.88741e-05 0)
(-0.000235653 8.15052e-05 0)
(-0.000332632 9.31862e-05 0)
(-0.000441792 0.00010378 0)
(-0.000561862 0.000113204 0)
(-0.000691511 0.000121409 0)
(-0.000829384 0.000128379 0)
(-0.000974122 0.000134113 0)
(-0.00112438 0.000138628 0)
(-0.00127884 0.000141949 0)
(-0.00143622 0.00014411 0)
(-0.00159527 0.000145152 0)
(-0.0017548 0.000145118 0)
(-0.00191366 0.000144054 0)
(-0.00207076 0.000142009 0)
(-0.00222506 0.000139034 0)
(-0.00237557 0.000135179 0)
(-0.00252136 0.000130495 0)
(-0.00266156 0.000125034 0)
(-0.00279535 0.000118847 0)
(-0.00292198 0.000111985 0)
(-0.00304072 0.0001045 0)
(-0.00315095 9.64412e-05 0)
(-0.00325204 8.78601e-05 0)
(-0.00334348 7.88069e-05 0)
(-0.00342477 6.93321e-05 0)
(-0.00349548 5.94858e-05 0)
(-0.00355524 4.93186e-05 0)
(-0.00360372 3.88812e-05 0)
(-0.00364067 2.82249e-05 0)
(-0.00366586 1.74013e-05 0)
(-0.00367914 6.46264e-06 0)
(-0.00368043 -4.53788e-06 0)
(-0.00366968 -1.55463e-05 0)
(-0.00364691 -2.65078e-05 0)
(-0.00361221 -3.73663e-05 0)
(-0.00356571 -4.80648e-05 0)
(-0.00350763 -5.85454e-05 0)
(-0.00343822 -6.87489e-05 0)
(-0.00335783 -7.86151e-05 0)
(-0.00326685 -8.8083e-05 0)
(-0.00316574 -9.70909e-05 0)
(-0.00305505 -0.000105576 0)
(-0.00293536 -0.000113476 0)
(-0.00280736 -0.000120728 0)
(-0.00267177 -0.000127269 0)
(-0.0025294 -0.000133036 0)
(-0.00238114 -0.000137967 0)
(-0.00222791 -0.000142004 0)
(-0.00207071 -0.000145086 0)
(-0.00191063 -0.000147159 0)
(-0.00174878 -0.000148168 0)
(-0.00158635 -0.000148065 0)
(-0.00142457 -0.000146804 0)
(-0.00126472 -0.000144346 0)
(-0.00110814 -0.000140658 0)
(-0.000956161 -0.000135717 0)
(-0.000810176 -0.000129509 0)
(-0.00067157 -0.000122034 0)
(-0.000541729 -0.000113308 0)
(-0.000422017 -0.000103371 0)
(-0.000313747 -9.2291e-05 0)
(-0.000218155 -8.01749e-05 0)
(-0.00013635 -6.71833e-05 0)
(-6.9257e-05 -5.35502e-05 0)
(-1.75346e-05 -3.96111e-05 0)
(1.8542e-05 -2.58438e-05 0)
(3.92388e-05 -1.29247e-05 0)
(4.55834e-05 -1.80543e-06 0)
(3.96492e-05 6.20576e-06 0)
(2.49584e-05 9.42674e-06 0)
(6.65944e-06 6.60009e-06 0)
(8.97003e-06 -2.39932e-05 0)
(3.3765e-05 -3.33014e-05 0)
(4.4968e-05 -1.49869e-05 0)
(3.08076e-05 2.18204e-05 0)
(-1.67958e-05 7.00822e-05 0)
(-0.000102586 0.000124657 0)
(-0.000228867 0.000181859 0)
(-0.000396116 0.000239081 0)
(-0.000603474 0.000294498 0)
(-0.000849122 0.00034685 0)
(-0.00113056 0.00039528 0)
(-0.0014448 0.000439224 0)
(-0.00178856 0.000478328 0)
(-0.00215834 0.000512394 0)
(-0.00255053 0.000541333 0)
(-0.00296149 0.000565142 0)
(-0.00338756 0.000583878 0)
(-0.00382515 0.000597643 0)
(-0.00427072 0.000606572 0)
(-0.00472084 0.000610825 0)
(-0.00517219 0.00061058 0)
(-0.00562158 0.000606028 0)
(-0.00606594 0.00059737 0)
(-0.00650235 0.000584813 0)
(-0.00692804 0.000568566 0)
(-0.0073404 0.000548842 0)
(-0.00773695 0.000525857 0)
(-0.00811539 0.000499823 0)
(-0.00847354 0.000470957 0)
(-0.00880942 0.00043947 0)
(-0.00912117 0.000405577 0)
(-0.00940711 0.000369489 0)
(-0.0096657 0.000331418 0)
(-0.00989556 0.000291576 0)
(-0.0100955 0.000250175 0)
(-0.0102644 0.000207427 0)
(-0.0104013 0.000163545 0)
(-0.0105056 0.000118746 0)
(-0.0105766 7.32463e-05 0)
(-0.010614 2.72663e-05 0)
(-0.0106173 -1.89707e-05 0)
(-0.0105866 -6.52378e-05 0)
(-0.0105219 -0.000111304 0)
(-0.0104235 -0.000156935 0)
(-0.0102917 -0.00020189 0)
(-0.0101271 -0.000245927 0)
(-0.00993063 -0.000288797 0)
(-0.00970309 -0.000330248 0)
(-0.00944566 -0.000370026 0)
(-0.00915968 -0.00040787 0)
(-0.00884666 -0.000443521 0)
(-0.00850829 -0.000476714 0)
(-0.00814649 -0.000507188 0)
(-0.00776333 -0.00053468 0)
(-0.00736109 -0.00055893 0)
(-0.00694223 -0.000579682 0)
(-0.00650939 -0.000596684 0)
(-0.00606538 -0.000609695 0)
(-0.00561319 -0.000618482 0)
(-0.00515597 -0.000622825 0)
(-0.00469701 -0.000622521 0)
(-0.00423973 -0.000617385 0)
(-0.00378768 -0.000607258 0)
(-0.0033445 -0.000592008 0)
(-0.0029139 -0.000571542 0)
(-0.00249963 -0.000545808 0)
(-0.00210547 -0.000514812 0)
(-0.00173512 -0.000478632 0)
(-0.00139221 -0.000437435 0)
(-0.00108019 -0.000391508 0)
(-0.000802272 -0.0003413 0)
(-0.000561257 -0.00028747 0)
(-0.000359428 -0.000230969 0)
(-0.000198323 -0.00017315 0)
(-7.84625e-05 -0.000115914 0)
(1.00362e-06 -6.1922e-05 0)
(4.27728e-05 -1.48754e-05 0)
(5.19635e-05 2.0141e-05 0)
(3.69538e-05 3.6276e-05 0)
(9.66159e-06 2.48375e-05 0)
(5.39052e-06 -3.7538e-05 0)
(1.61987e-05 -4.45535e-05 0)
(1.9536e-06 -2.63948e-07 0)
(-5.24699e-05 7.83169e-05 0)
(-0.000157864 0.000178342 0)
(-0.000320777 0.00029032 0)
(-0.000544532 0.000407318 0)
(-0.000829928 0.000524326 0)
(-0.00117586 0.000637759 0)
(-0.00157977 0.000745083 0)
(-0.00203809 0.000844539 0)
(-0.00254645 0.000934935 0)
(-0.00309998 0.0010155 0)
(-0.00369342 0.00108578 0)
(-0.00432133 0.00114554 0)
(-0.00497814 0.00119473 0)
(-0.00565824 0.00123345 0)
(-0.00635607 0.00126185 0)
(-0.00706616 0.00128021 0)
(-0.00778316 0.00128882 0)
(-0.00850186 0.00128804 0)
(-0.00921726 0.00127825 0)
(-0.00992453 0.00125986 0)
(-0.0106191 0.00123329 0)
(-0.0112965 0.00119897 0)
(-0.0119527 0.00115733 0)
(-0.0125837 0.00110883 0)
(-0.0131859 0.00105391 0)
(-0.0137557 0.000993022 0)
(-0.0142901 0.000926607 0)
(-0.0147861 0.000855117 0)
(-0.015241 0.000778997 0)
(-0.0156524 0.000698694 0)
(-0.016018 0.000614655 0)
(-0.0163359 0.000527329 0)
(-0.0166045 0.000437164 0)
(-0.0168222 0.000344612 0)
(-0.0169878 0.00025013 0)
(-0.0171005 0.000154178 0)
(-0.0171596 5.72212e-05 0)
(-0.0171646 -4.02669e-05 0)
(-0.0171155 -0.000137807 0)
(-0.0170122 -0.000234911 0)
(-0.0168552 -0.000331083 0)
(-0.0166453 -0.000425818 0)
(-0.0163832 -0.000518603 0)
(-0.0160704 -0.000608916 0)
(-0.0157082 -0.000696227 0)
(-0.0152986 -0.000779998 0)
(-0.0148436 -0.000859689 0)
(-0.0143457 -0.000934751 0)
(-0.0138075 -0.00100464 0)
(-0.0132322 -0.00106879 0)
(-0.012623 -0.00112668 0)
(-0.0119834 -0.00117775 0)
(-0.0113175 -0.00122148 0)
(-0.0106293 -0.00125734 0)
(-0.00992341 -0.00128484 0)
(-0.00920441 -0.0013035 0)
(-0.00847726 -0.00131287 0)
(-0.00774714 -0.00131254 0)
(-0.00701941 -0.00130215 0)
(-0.00629959 -0.00128138 0)
(-0.00559333 -0.00124997 0)
(-0.00490639 -0.00120776 0)
(-0.00424456 -0.00115468 0)
(-0.0036136 -0.00109076 0)
(-0.00301919 -0.00101621 0)
(-0.0024668 -0.000931408 0)
(-0.00196163 -0.000836999 0)
(-0.00150841 -0.000733934 0)
(-0.00111126 -0.000623597 0)
(-0.000773455 -0.000507935 0)
(-0.000497129 -0.000389657 0)
(-0.000282913 -0.000272497 0)
(-0.000129475 -0.000161569 0)
(-3.29452e-05 -6.38375e-05 0)
(1.37536e-05 1.12962e-05 0)
(2.18426e-05 5.12724e-05 0)
(6.70589e-06 3.96863e-05 0)
(-2.81935e-06 -4.21286e-05 0)
(-1.95732e-05 -3.10592e-05 0)
(-7.4819e-05 5.39113e-05 0)
(-0.000184968 0.000188911 0)
(-0.000361999 0.000355609 0)
(-0.00061327 0.000540163 0)
(-0.000942541 0.000732228 0)
(-0.00135068 0.00092415 0)
(-0.00183629 0.00111033 0)
(-0.00239622 0.00128671 0)
(-0.003026 0.00145041 0)
(-0.00372019 0.00159944 0)
(-0.0044726 0.00173244 0)
(-0.00527657 0.0018486 0)
(-0.00612509 0.00194747 0)
(-0.007011 0.00202889 0)
(-0.00792703 0.00209293 0)
(-0.00886593 0.00213984 0)
(-0.00982055 0.00216999 0)
(-0.0107838 0.00218386 0)
(-0.011749 0.00218201 0)
(-0.0127093 0.00216503 0)
(-0.0136585 0.0021336 0)
(-0.0145904 0.00208839 0)
(-0.0154993 0.00203011 0)
(-0.0163794 0.00195951 0)
(-0.0172258 0.0018773 0)
(-0.0180333 0.00178425 0)
(-0.0187975 0.0016811 0)
(-0.0195141 0.0015686 0)
(-0.0201792 0.00144751 0)
(-0.020789 0.00131859 0)
(-0.0213405 0.00118258 0)
(-0.0218306 0.00104024 0)
(-0.0222567 0.000892343 0)
(-0.0226165 0.000739641 0)
(-0.0229081 0.000582905 0)
(-0.02313 0.00042291 0)
(-0.0232808 0.000260437 0)
(-0.0233596 9.62777e-05 0)
(-0.023366 -6.87647e-05 0)
(-0.0232997 -0.000233876 0)
(-0.023161 -0.000398229 0)
(-0.0229502 -0.000560983 0)
(-0.0226684 -0.000721283 0)
(-0.0223169 -0.000878261 0)
(-0.0218973 -0.00103103 0)
(-0.0214116 -0.00117871 0)
(-0.0208624 -0.00132038 0)
(-0.0202524 -0.00145513 0)
(-0.0195849 -0.00158205 0)
(-0.0188636 -0.00170021 0)
(-0.0180925 -0.0018087 0)
(-0.0172759 -0.00190659 0)
(-0.0164188 -0.00199299 0)
(-0.0155262 -0.00206701 0)
(-0.0146038 -0.00212779 0)
(-0.0136574 -0.00217452 0)
(-0.0126933 -0.0022064 0)
(-0.011718 -0.00222271 0)
(-0.0107383 -0.00222277 0)
(-0.0097613 -0.00220601 0)
(-0.00879424 -0.00217193 0)
(-0.00784453 -0.00212014 0)
(-0.00691969 -0.00205042 0)
(-0.00602725 -0.00196268 0)
(-0.00517468 -0.00185705 0)
(-0.00436929 -0.00173394 0)
(-0.00361811 -0.00159404 0)
(-0.00292776 -0.00143848 0)
(-0.00230424 -0.00126887 0)
(-0.0017527 -0.00108754 0)
(-0.00127724 -0.000897657 0)
(-0.000880499 -0.000703551 0)
(-0.0005633 -0.000511061 0)
(-0.000324129 -0.000328005 0)
(-0.000158552 -0.000164789 0)
(-5.85593e-05 -3.51571e-05 0)
(-1.16128e-05 4.28963e-05 0)
(-9.10732e-07 4.61736e-05 0)
(-1.39823e-05 -3.44473e-05 0)
(-6.67796e-05 1.51561e-05 0)
(-0.000173108 0.000158276 0)
(-0.000349463 0.000365601 0)
(-0.000607934 0.000614058 0)
(-0.000955862 0.0008858 0)
(-0.00139688 0.00116717 0)
(-0.00193157 0.00144785 0)
(-0.00255809 0.0017201 0)
(-0.00327267 0.0019782 0)
(-0.00407004 0.002218 0)
(-0.00494379 0.00243654 0)
(-0.00588666 0.00263181 0)
(-0.00689075 0.00280249 0)
(-0.00794777 0.00294783 0)
(-0.00904917 0.00306752 0)
(-0.0101863 0.00316159 0)
(-0.0113504 0.00323031 0)
(-0.0125328 0.00327417 0)
(-0.0137251 0.00329383 0)
(-0.014919 0.00329006 0)
(-0.0161064 0.00326374 0)
(-0.0172796 0.00321579 0)
(-0.0184311 0.00314723 0)
(-0.0195538 0.0030591 0)
(-0.0206409 0.00295246 0)
(-0.021686 0.0028284 0)
(-0.0226831 0.00268805 0)
(-0.0236265 0.00253251 0)
(-0.0245111 0.0023629 0)
(-0.0253319 0.00218037 0)
(-0.0260846 0.00198603 0)
(-0.0267651 0.00178104 0)
(-0.0273698 0.00156652 0)
(-0.0278955 0.00134362 0)
(-0.0283393 0.00111351 0)
(-0.028699 0.000877321 0)
(-0.0289725 0.000636241 0)
(-0.0291583 0.000391447 0)
(-0.0292553 0.000144133 0)
(-0.0292629 -0.000104488 0)
(-0.0291808 -0.000353188 0)
(-0.0290093 -0.00060072 0)
(-0.028749 -0.000845816 0)
(-0.0284011 -0.00108719 0)
(-0.0279671 -0.00132353 0)
(-0.0274491 -0.00155352 0)
(-0.0268497 -0.00177581 0)
(-0.0261719 -0.00198905 0)
(-0.0254193 -0.00219187 0)
(-0.0245957 -0.00238289 0)
(-0.0237056 -0.00256074 0)
(-0.0227541 -0.00272405 0)
(-0.0217465 -0.00287146 0)
(-0.0206887 -0.00300162 0)
(-0.0195871 -0.00311324 0)
(-0.0184484 -0.00320505 0)
(-0.0172799 -0.00327583 0)
(-0.0160891 -0.00332443 0)
(-0.014884 -0.00334981 0)
(-0.0136729 -0.00335099 0)
(-0.0124643 -0.00332715 0)
(-0.011267 -0.00327759 0)
(-0.0100901 -0.00320181 0)
(-0.00894236 -0.00309951 0)
(-0.00783301 -0.00297064 0)
(-0.00677094 -0.00281549 0)
(-0.00576487 -0.00263471 0)
(-0.00482315 -0.00242941 0)
(-0.00395359 -0.00220132 0)
(-0.00316328 -0.00195289 0)
(-0.00245831 -0.0016875 0)
(-0.00184352 -0.00140974 0)
(-0.00132211 -0.0011257 0)
(-0.000895261 -0.000843469 0)
(-0.00056166 -0.000573607 0)
(-0.000316891 -0.000329885 0)
(-0.000152842 -0.000130075 0)
(-5.67335e-05 3.08204e-06 0)
(-1.1541e-05 4.09358e-05 0)
(-2.68687e-05 -1.25612e-05 0)
(-0.000120673 9.89993e-05 0)
(-0.000284259 0.00031976 0)
(-0.000533553 0.000616372 0)
(-0.000880042 0.000961911 0)
(-0.00133042 0.00133505 0)
(-0.0018877 0.00171912 0)
(-0.00255184 0.00210122 0)
(-0.00332033 0.00247152 0)
(-0.00418868 0.00282259 0)
(-0.0051508 0.00314892 0)
(-0.0061994 0.00344651 0)
(-0.0073262 0.00371257 0)
(-0.00852225 0.00394522 0)
(-0.00977813 0.00414336 0)
(-0.0110841 0.00430644 0)
(-0.0124301 0.00443441 0)
(-0.0138064 0.00452757 0)
(-0.0152029 0.00458651 0)
(-0.0166098 0.00461205 0)
(-0.0180177 0.00460522 0)
(-0.0194171 0.00456715 0)
(-0.0207992 0.00449911 0)
(-0.0221551 0.00440245 0)
(-0.0234768 0.00427859 0)
(-0.0247562 0.00412898 0)
(-0.0259859 0.00395512 0)
(-0.0271589 0.00375855 0)
(-0.0282686 0.0035408 0)
(-0.0293089 0.00330344 0)
(-0.0302742 0.00304803 0)
(-0.0311592 0.00277615 0)
(-0.0319592 0.00248939 0)
(-0.03267 0.00218934 0)
(-0.0332879 0.0018776 0)
(-0.0338095 0.00155578 0)
(-0.0342321 0.00122549 0)
(-0.0345534 0.000888393 0)
(-0.0347716 0.000546122 0)
(-0.0348855 0.000200358 0)
(-0.0348942 -0.000147206 0)
(-0.0347975 -0.000494851 0)
(-0.0345957 -0.000840832 0)
(-0.0342896 -0.00118338 0)
(-0.0338805 -0.0015207 0)
(-0.0333703 -0.00185096 0)
(-0.0327614 -0.00217233 0)
(-0.0320569 -0.00248292 0)
(-0.0312602 -0.00278086 0)
(-0.0303754 -0.00306425 0)
(-0.0294073 -0.00333117 0)
(-0.028361 -0.00357972 0)
(-0.0272423 -0.00380801 0)
(-0.0260576 -0.00401416 0)
(-0.0248136 -0.00419633 0)
(-0.0235179 -0.00435272 0)
(-0.0221783 -0.00448159 0)
(-0.0208031 -0.0045813 0)
(-0.0194011 -0.00465027 0)
(-0.0179816 -0.0046871 0)
(-0.0165541 -0.00469048 0)
(-0.0151286 -0.00465931 0)
(-0.0137151 -0.00459271 0)
(-0.012324 -0.00449003 0)
(-0.0109656 -0.00435094 0)
(-0.00965026 -0.00417546 0)
(-0.00838825 -0.00396405 0)
(-0.00718949 -0.00371771 0)
(-0.00606351 -0.00343804 0)
(-0.00501919 -0.00312747 0)
(-0.00406461 -0.00278935 0)
(-0.00320674 -0.00242827 0)
(-0.00245119 -0.00205029 0)
(-0.00180184 -0.00166337 0)
(-0.00126049 -0.0012778 0)
(-0.000826342 -0.000906824 0)
(-0.000495517 -0.000567301 0)
(-0.000260431 -0.000280545 0)
(-0.000108774 -7.3201e-05 0)
(-2.39552e-05 2.19805e-05 0)
(-4.06421e-05 2.45324e-05 0)
(-0.000178032 0.000223262 0)
(-0.000402305 0.000542568 0)
(-0.000728516 0.000946292 0)
(-0.00116711 0.00140453 0)
(-0.0017237 0.00189309 0)
(-0.00240027 0.00239264 0)
(-0.00319585 0.00288795 0)
(-0.00410705 0.0033672 0)
(-0.00512851 0.00382127 0)
(-0.00625327 0.0042433 0)
(-0.00747311 0.00462822 0)
(-0.00877883 0.00497239 0)
(-0.0101605 0.00527335 0)
(-0.0116076 0.00552956 0)
(-0.0131093 0.00574023 0)
(-0.0146546 0.00590518 0)
(-0.0162325 0.00602471 0)
(-0.0178317 0.00609951 0)
(-0.0194415 0.00613058 0)
(-0.0210511 0.00611918 0)
(-0.0226501 0.00606675 0)
(-0.0242283 0.0059749 0)
(-0.0257761 0.00584537 0)
(-0.0272841 0.00567997 0)
(-0.0287435 0.0054806 0)
(-0.0301458 0.00524922 0)
(-0.0314832 0.00498782 0)
(-0.0327481 0.00469843 0)
(-0.0339337 0.00438309 0)
(-0.0350337 0.00404388 0)
(-0.036042 0.00368288 0)
(-0.0369534 0.00330218 0)
(-0.0377631 0.00290388 0)
(-0.0384668 0.00249011 0)
(-0.0390609 0.00206301 0)
(-0.0395421 0.00162471 0)
(-0.039908 0.00117741 0)
(-0.0401565 0.000723274 0)
(-0.0402861 0.000264541 0)
(-0.0402959 -0.000196546 0)
(-0.0401858 -0.000657708 0)
(-0.039956 -0.00111663 0)
(-0.0396074 -0.00157098 0)
(-0.0391416 -0.00201837 0)
(-0.0385606 -0.00245638 0)
(-0.0378673 -0.00288259 0)
(-0.037065 -0.00329452 0)
(-0.0361577 -0.00368967 0)
(-0.0351501 -0.00406556 0)
(-0.0340474 -0.00441967 0)
(-0.0328555 -0.00474949 0)
(-0.031581 -0.00505254 0)
(-0.030231 -0.00532636 0)
(-0.0288132 -0.00556853 0)
(-0.027336 -0.00577671 0)
(-0.0258082 -0.00594865 0)
(-0.0242392 -0.0060822 0)
(-0.0226389 -0.00617535 0)
(-0.0210177 -0.00622626 0)
(-0.0193862 -0.0062333 0)
(-0.0177556 -0.00619507 0)
(-0.0161372 -0.00611046 0)
(-0.0145425 -0.00597872 0)
(-0.012983 -0.00579949 0)
(-0.0114704 -0.00557287 0)
(-0.0100158 -0.00529956 0)
(-0.00863055 -0.00498093 0)
(-0.00732505 -0.00461914 0)
(-0.00610927 -0.00421738 0)
(-0.00499221 -0.00377998 0)
(-0.00398176 -0.00331276 0)
(-0.00308438 -0.00282332 0)
(-0.00230478 -0.00232141 0)
(-0.00164557 -0.0018195 0)
(-0.00110685 -0.00133325 0)
(-0.000685627 -0.000882305 0)
(-0.000375306 -0.00049094 0)
(-0.000164483 -0.000188868 0)
(-3.73083e-05 -1.17502e-05 0)
(-5.47582e-05 7.72164e-05 0)
(-0.000236741 0.000389258 0)
(-0.000523253 0.000828925 0)
(-0.000928388 0.00135824 0)
(-0.00146133 0.00194512 0)
(-0.00212629 0.00256307 0)
(-0.00292397 0.00319053 0)
(-0.0038522 0.00381023 0)
(-0.0049065 0.0044085 0)
(-0.00608048 0.00497468 0)
(-0.00736623 0.00550057 0)
(-0.00875458 0.00598004 0)
(-0.0102354 0.00640862 0)
(-0.0117977 0.00678321 0)
(-0.0134301 0.00710184 0)
(-0.0151207 0.00736344 0)
(-0.0168576 0.00756768 0)
(-0.0186285 0.00771486 0)
(-0.0204214 0.00780575 0)
(-0.0222244 0.00784154 0)
(-0.0240257 0.00782373 0)
(-0.0258139 0.00775408 0)
(-0.0275779 0.00763457 0)
(-0.029307 0.00746733 0)
(-0.0309909 0.00725465 0)
(-0.0326199 0.00699887 0)
(-0.0341848 0.00670247 0)
(-0.0356768 0.00636794 0)
(-0.0370877 0.00599783 0)
(-0.0384098 0.00559475 0)
(-0.0396362 0.00516131 0)
(-0.0407603 0.00470015 0)
(-0.0417762 0.00421393 0)
(-0.0426786 0.00370532 0)
(-0.0434629 0.00317704 0)
(-0.0441249 0.00263179 0)
(-0.0446613 0.00207231 0)
(-0.045069 0.00150138 0)
(-0.0453459 0.000921782 0)
(-0.0454905 0.000336355 0)
(-0.0455016 -0.000252039 0)
(-0.0453792 -0.000840499 0)
(-0.0451234 -0.00142608 0)
(-0.0447353 -0.0020058 0)
(-0.0442166 -0.00257663 0)
(-0.0435696 -0.00313551 0)
(-0.0427975 -0.00367933 0)
(-0.0419038 -0.00420497 0)
(-0.0408931 -0.00470926 0)
(-0.0397705 -0.00518904 0)
(-0.0385417 -0.00564113 0)
(-0.0372134 -0.00606235 0)
(-0.0357926 -0.00644957 0)
(-0.0342873 -0.00679969 0)
(-0.032706 -0.00710967 0)
(-0.0310577 -0.00737656 0)
(-0.0293524 -0.00759754 0)
(-0.0276002 -0.00776993 0)
(-0.0258122 -0.00789123 0)
(-0.0239996 -0.00795915 0)
(-0.0221742 -0.00797168 0)
(-0.0203481 -0.00792713 0)
(-0.0185338 -0.00782417 0)
(-0.0167438 -0.00766191 0)
(-0.0149908 -0.00743997 0)
(-0.0132874 -0.00715858 0)
(-0.0116461 -0.00681868 0)
(-0.0100789 -0.00642205 0)
(-0.00859737 -0.00597145 0)
(-0.00721252 -0.00547084 0)
(-0.00593427 -0.00492558 0)
(-0.00477148 -0.00434272 0)
(-0.00373154 -0.00373133 0)
(-0.00282016 -0.00310295 0)
(-0.002041 -0.00247198 0)
(-0.00139526 -0.00185633 0)
(-0.00088118 -0.00127798 0)
(-0.000493416 -0.000763647 0)
(-0.00022171 -0.000345349 0)
(-5.1046e-05 -6.06859e-05 0)
(-6.88769e-05 0.000145484 0)
(-0.000295467 0.000597326 0)
(-0.000644529 0.00117969 0)
(-0.00112924 0.00185356 0)
(-0.00175743 0.00258531 0)
(-0.00253176 0.00334668 0)
(-0.00345142 0.00411433 0)
(-0.00451286 0.00486921 0)
(-0.00571032 0.00559604 0)
(-0.00703627 0.00628272 0)
(-0.00848171 0.00691986 0)
(-0.0100365 0.00750028 0)
(-0.0116894 0.00801871 0)
(-0.0134286 0.00847143 0)
(-0.0152417 0.00885603 0)
(-0.0171159 0.00917115 0)
(-0.0190382 0.00941632 0)
(-0.0209955 0.00959183 0)
(-0.0229749 0.00969853 0)
(-0.0249634 0.0097378 0)
(-0.0269483 0.00971141 0)
(-0.0289174 0.00962144 0)
(-0.0308586 0.00947026 0)
(-0.0327603 0.00926045 0)
(-0.0346116 0.00899475 0)
(-0.0364018 0.00867604 0)
(-0.0381209 0.0083073 0)
(-0.0397594 0.00789159 0)
(-0.0413085 0.00743204 0)
(-0.0427598 0.00693184 0)
(-0.0441057 0.00639419 0)
(-0.0453392 0.00582236 0)
(-0.0464539 0.0052196 0)
(-0.047444 0.00458923 0)
(-0.0483044 0.00393458 0)
(-0.0490307 0.003259 0)
(-0.0496191 0.00256587 0)
(-0.0500666 0.00185861 0)
(-0.0503706 0.00114069 0)
(-0.0505295 0.000415588 0)
(-0.0505422 -0.000313152 0)
(-0.0504084 -0.00104195 0)
(-0.0501285 -0.00176716 0)
(-0.0497036 -0.00248511 0)
(-0.0491354 -0.00319207 0)
(-0.0484266 -0.00388425 0)
(-0.0475804 -0.00455784 0)
(-0.0466009 -0.00520897 0)
(-0.0454929 -0.00583377 0)
(-0.044262 -0.00642833 0)
(-0.0429144 -0.00698875 0)
(-0.0414572 -0.00751113 0)
(-0.0398982 -0.00799164 0)
(-0.0382459 -0.00842647 0)
(-0.0365095 -0.0088119 0)
(-0.034699 -0.00914435 0)
(-0.0328248 -0.00942037 0)
(-0.0308982 -0.0096367 0)
(-0.0289309 -0.00979031 0)
(-0.0269352 -0.00987846 0)
(-0.0249238 -0.00989871 0)
(-0.0229098 -0.00984907 0)
(-0.0209066 -0.00972795 0)
(-0.0189278 -0.00953434 0)
(-0.016987 -0.00926785 0)
(-0.0150979 -0.00892882 0)
(-0.013274 -0.00851846 0)
(-0.0115282 -0.00803897 0)
(-0.00987327 -0.00749371 0)
(-0.00832104 -0.00688743 0)
(-0.00688251 -0.00622648 0)
(-0.00556755 -0.00551913 0)
(-0.00438462 -0.00477586 0)
(-0.00334058 -0.00400982 0)
(-0.00244029 -0.00323723 0)
(-0.00168628 -0.00247792 0)
(-0.00107819 -0.00175586 0)
(-0.000612144 -0.00109968 0)
(-0.000279094 -0.000543083 0)
(-6.48204e-05 -0.000124859 0)
(-8.27983e-05 0.000229097 0)
(-0.000353419 0.000847186 0)
(-0.000764571 0.00159483 0)
(-0.00132863 0.00243251 0)
(-0.00205208 0.00332562 0)
(-0.00293594 0.00424461 0)
(-0.00397777 0.00516468 0)
(-0.00517249 0.00606534 0)
(-0.00651294 0.00692992 0)
(-0.0079903 0.00774507 0)
(-0.00959441 0.00850026 0)
(-0.011314 0.00918741 0)
(-0.0131368 0.00980048 0)
(-0.0150501 0.0103352 0)
(-0.0170404 0.0107886 0)
(-0.0190941 0.0111592 0)
(-0.0211972 0.0114464 0)
(-0.0233358 0.0116504 0)
(-0.0254959 0.0117722 0)
(-0.0276638 0.0118133 0)
(-0.029826 0.0117758 0)
(-0.0319693 0.0116622 0)
(-0.0340808 0.0114752 0)
(-0.0361483 0.0112179 0)
(-0.0381599 0.0108934 0)
(-0.0401043 0.0105053 0)
(-0.0419708 0.0100571 0)
(-0.0437492 0.00955238 0)
(-0.0454301 0.00899494 0)
(-0.0470046 0.00838859 0)
(-0.0484645 0.00773717 0)
(-0.0498022 0.00704458 0)
(-0.0510109 0.00631478 0)
(-0.0520845 0.00555173 0)
(-0.0530174 0.00475944 0)
(-0.053805 0.00394194 0)
(-0.0544432 0.00310332 0)
(-0.0549286 0.0022477 0)
(-0.0552587 0.00137924 0)
(-0.0554316 0.000502153 0)
(-0.0554461 -0.000379302 0)
(-0.0553021 -0.0012608 0)
(-0.0549997 -0.00213797 0)
(-0.0545402 -0.00300638 0)
(-0.0539255 -0.00386153 0)
(-0.0531585 -0.00469887 0)
(-0.0522425 -0.00551382 0)
(-0.0511819 -0.00630173 0)
(-0.0499818 -0.00705793 0)
(-0.0486482 -0.00777775 0)
(-0.0471879 -0.0084565 0)
(-0.0456082 -0.00908951 0)
(-0.0439176 -0.00967218 0)
(-0.0421252 -0.0102 0)
(-0.0402408 -0.0106684 0)
(-0.0382749 -0.0110732 0)
(-0.036239 -0.0114103 0)
(-0.0341449 -0.0116759 0)
(-0.0320051 -0.0118662 0)
(-0.0298328 -0.011978 0)
(-0.0276416 -0.0120086 0)
(-0.0254455 -0.0119555 0)
(-0.0232588 -0.0118169 0)
(-0.021096 -0.0115917 0)
(-0.0189717 -0.0112795 0)
(-0.0169005 -0.0108806 0)
(-0.0148969 -0.0103966 0)
(-0.012975 -0.00983002 0)
(-0.0111483 -0.00918491 0)
(-0.00942978 -0.00846674 0)
(-0.00783154 -0.00768282 0)
(-0.00636451 -0.00684256 0)
(-0.00503837 -0.00595777 0)
(-0.0038612 -0.00504305 0)
(-0.00283926 -0.00411625 0)
(-0.00197653 -0.00319884 0)
(-0.0012742 -0.00231644 0)
(-0.000729903 -0.00149916 0)
(-0.000335829 -0.000781889 0)
(-7.84267e-05 -0.000204064 0)
(-9.64178e-05 0.000327699 0)
(-0.000410179 0.0011382 0)
(-0.000882521 0.00207373 0)
(-0.00152518 0.0030947 0)
(-0.00234332 0.00416589 0)
(-0.00333634 0.00525683 0)
(-0.00450009 0.00634162 0)
(-0.00582786 0.00739862 0)
(-0.00731097 0.00840997 0)
(-0.00893923 0.00936125 0)
(-0.0107012 0.010241 0)
(-0.0125844 0.0110402 0)
(-0.0145756 0.0117522 0)
(-0.0166609 0.0123721 0)
(-0.0188259 0.0128968 0)
(-0.0210561 0.0133244 0)
(-0.0233365 0.0136541 0)
(-0.0256524 0.0138863 0)
(-0.027989 0.014022 0)
(-0.0303317 0.0140631 0)
(-0.0326661 0.0140118 0)
(-0.0349784 0.0138709 0)
(-0.0372549 0.0136438 0)
(-0.0394826 0.0133339 0)
(-0.041649 0.012945 0)
(-0.0437421 0.012481 0)
(-0.0457505 0.0119463 0)
(-0.0476635 0.0113449 0)
(-0.0494711 0.0106814 0)
(-0.0511638 0.0099601 0)
(-0.052733 0.00918568 0)
(-0.0541707 0.00836267 0)
(-0.0554697 0.00749574 0)
(-0.0566234 0.00658955 0)
(-0.057626 0.00564884 0)
(-0.0584724 0.00467839 0)
(-0.0591585 0.00368299 0)
(-0.0596806 0.00266752 0)
(-0.060036 0.0016369 0)
(-0.0602227 0.000596094 0)
(-0.0602396 -0.000449861 0)
(-0.0600862 -0.00149586 0)
(-0.0597629 -0.00253675 0)
(-0.059271 -0.00356729 0)
(-0.0586125 -0.00458217 0)
(-0.0577902 -0.00557604 0)
(-0.056808 -0.00654347 0)
(-0.0556703 -0.00747901 0)
(-0.0543826 -0.00837714 0)
(-0.0529511 -0.00923237 0)
(-0.051383 -0.0100392 0)
(-0.0496862 -0.010792 0)
(-0.0478695 -0.0114856 0)
(-0.0459425 -0.0121145 0)
(-0.0439157 -0.0126734 0)
(-0.0418003 -0.0131575 0)
(-0.0396081 -0.0135618 0)
(-0.0373519 -0.0138819 0)
(-0.035045 -0.0141136 0)
(-0.0327011 -0.0142529 0)
(-0.0303348 -0.0142968 0)
(-0.0279609 -0.0142423 0)
(-0.0255945 -0.0140874 0)
(-0.0232511 -0.0138308 0)
(-0.0209462 -0.0134721 0)
(-0.0186955 -0.0130117 0)
(-0.0165142 -0.0124513 0)
(-0.0144176 -0.0117941 0)
(-0.0124201 -0.0110444 0)
(-0.010536 -0.0102085 0)
(-0.00877829 -0.00929469 0)
(-0.00715921 -0.00831334 0)
(-0.00568969 -0.0072775 0)
(-0.00437922 -0.0062031 0)
(-0.0032355 -0.00510936 0)
(-0.0022641 -0.0040192 0)
(-0.00146783 -0.00295954 0)
(-0.000845838 -0.00196166 0)
(-0.000391492 -0.00106123 0)
(-9.17587e-05 -0.000297975 0)
(-0.000109695 0.000440881 0)
(-0.000465583 0.00146957 0)
(-0.000998017 0.00261553 0)
(-0.00171824 0.00383933 0)
(-0.00263022 0.00510548 0)
(-0.00373172 0.0063829 0)
(-0.00501689 0.00764486 0)
(-0.0064773 0.00886878 0)
(-0.00810271 0.0100359 0)
(-0.00988143 0.0111308 0)
(-0.0118007 0.0121413 0)
(-0.0138467 0.0130576 0)
(-0.0160052 0.0138725 0)
(-0.0182611 0.0145807 0)
(-0.0205991 0.0151786 0)
(-0.0230037 0.0156642 0)
(-0.025459 0.0160367 0)
(-0.0279494 0.0162964 0)
(-0.0304592 0.0164445 0)
(-0.0329732 0.0164832 0)
(-0.0354762 0.016415 0)
(-0.0379534 0.0162432 0)
(-0.0403908 0.0159715 0)
(-0.0427745 0.0156039 0)
(-0.0450913 0.0151447 0)
(-0.0473287 0.0145986 0)
(-0.0494747 0.0139703 0)
(-0.0515181 0.0132647 0)
(-0.0534483 0.012487 0)
(-0.0552554 0.0116424 0)
(-0.0569304 0.010736 0)
(-0.0584648 0.00977321 0)
(-0.059851 0.00875942 0)
(-0.0610821 0.00770004 0)
(-0.0621521 0.00660058 0)
(-0.0630556 0.00546655 0)
(-0.0637882 0.00430356 0)
(-0.064346 0.00311726 0)
(-0.0647263 0.00191334 0)
(-0.0649269 0.000697584 0)
(-0.0649465 -0.000524159 0)
(-0.0647848 -0.00174597 0)
(-0.064442 -0.00296185 0)
(-0.0639196 -0.00416573 0)
(-0.0632195 -0.00535146 0)
(-0.0623448 -0.0065128 0)
(-0.0612995 -0.00764348 0)
(-0.0600881 -0.00873716 0)
(-0.0587165 -0.00978745 0)
(-0.0571911 -0.010788 0)
(-0.0555194 -0.0117323 0)
(-0.0537098 -0.0126142 0)
(-0.0517714 -0.0134272 0)
(-0.0497144 -0.0141653 0)
(-0.0475497 -0.0148223 0)
(-0.0452891 -0.0153925 0)
(-0.0429451 -0.0158704 0)
(-0.040531 -0.0162506 0)
(-0.0380607 -0.0165284 0)
(-0.035549 -0.0166994 0)
(-0.0330109 -0.0167597 0)
(-0.0304622 -0.0167063 0)
(-0.0279189 -0.0165367 0)
(-0.0253972 -0.0162494 0)
(-0.0229136 -0.0158439 0)
(-0.0204847 -0.0153207 0)
(-0.0181269 -0.0146818 0)
(-0.0158562 -0.0139305 0)
(-0.0136885 -0.0130719 0)
(-0.0116388 -0.0121128 0)
(-0.00972156 -0.0110623 0)
(-0.00795027 -0.00993175 0)
(-0.00633721 -0.00873533 0)
(-0.00489334 -0.00749011 0)
(-0.00362792 -0.00621653 0)
(-0.00254816 -0.00493869 0)
(-0.0016585 -0.00368462 0)
(-0.000959609 -0.00248645 0)
(-0.000445929 -0.00138039 0)
(-0.000104777 -0.000406217 0)
(-0.000122631 0.000568238 0)
(-0.000519637 0.00184044 0)
(-0.00111103 0.00321921 0)
(-0.00190772 0.00466545 0)
(-0.00291257 0.00614361 0)
(-0.00412178 0.0076222 0)
(-0.00552776 0.00907392 0)
(-0.00712039 0.0104755 0)
(-0.00888775 0.0118074 0)
(-0.0108166 0.0130535 0)
(-0.0128928 0.0142008 0)
(-0.0151013 0.0152391 0)
(-0.0174264 0.0161607 0)
(-0.0198522 0.0169597 0)
(-0.0223621 0.0176325 0)
(-0.0249396 0.0181768 0)
(-0.0275682 0.0185919 0)
(-0.0302312 0.0188782 0)
(-0.0329121 0.019037 0)
(-0.0355949 0.0190708 0)
(-0.0382637 0.0189825 0)
(-0.0409031 0.0187758 0)
(-0.0434982 0.0184548 0)
(-0.0460347 0.0180242 0)
(-0.0484987 0.017489 0)
(-0.0508771 0.0168542 0)
(-0.0531574 0.0161255 0)
(-0.055328 0.0153083 0)
(-0.0573777 0.0144086 0)
(-0.0592962 0.0134322 0)
(-0.0610741 0.0123851 0)
(-0.0627026 0.0112735 0)
(-0.0641737 0.0101034 0)
(-0.0654803 0.00888112 0)
(-0.066616 0.00761291 0)
(-0.0675752 0.0063051 0)
(-0.0683533 0.00496409 0)
(-0.0689464 0.00359636 0)
(-0.0693513 0.00220843 0)
(-0.0695659 0.000806917 0)
(-0.069589 -0.000601486 0)
(-0.0694198 -0.00201 0)
(-0.069059 -0.00341177 0)
(-0.0685077 -0.00479983 0)
(-0.0677681 -0.00616714 0)
(-0.0668434 -0.00750658 0)
(-0.0657375 -0.00881097 0)
(-0.0644554 -0.010073 0)
(-0.063003 -0.0112855 0)
(-0.061387 -0.012441 0)
(-0.0596152 -0.0135323 0)
(-0.0576963 -0.0145521 0)
(-0.0556398 -0.0154932 0)
(-0.0534563 -0.0163486 0)
(-0.0511573 -0.0171113 0)
(-0.0487549 -0.0177747 0)
(-0.0462622 -0.0183325 0)
(-0.0436933 -0.0187787 0)
(-0.0410626 -0.0191078 0)
(-0.0383856 -0.0193147 0)
(-0.0356781 -0.0193952 0)
(-0.0329565 -0.0193456 0)
(-0.0302378 -0.0191631 0)
(-0.027539 -0.0188461 0)
(-0.0248777 -0.0183939 0)
(-0.0222713 -0.017807 0)
(-0.0197371 -0.0170876 0)
(-0.0172925 -0.0162393 0)
(-0.0149542 -0.0152675 0)
(-0.0127387 -0.0141798 0)
(-0.0106616 -0.0129859 0)
(-0.00873771 -0.0116981 0)
(-0.00698081 -0.0103315 0)
(-0.0054034 -0.00890415 0)
(-0.00401637 -0.00743759 0)
(-0.0028286 -0.00595691 0)
(-0.00184618 -0.00449103 0)
(-0.00107123 -0.00307275 0)
(-0.000499163 -0.00173865 0)
(-0.000117489 -0.000528417 0)
(-0.000135256 0.000709394 0)
(-0.000572455 0.00225 0)
(-0.00122175 0.00388379 0)
(-0.00209386 0.00557209 0)
(-0.00319066 0.00727941 0)
(-0.00450684 0.00897405 0)
(-0.00603309 0.0106283 0)
(-0.00775757 0.0122184 0)
(-0.00966667 0.0137241 0)
(-0.0117456 0.0151289 0)
(-0.0139786 0.0164193 0)
(-0.0163494 0.0175844 0)
(-0.018841 0.0186161 0)
(-0.0214363 0.0195086 0)
(-0.0241176 0.0202577 0)
(-0.0268675 0.0208613 0)
(-0.0296684 0.0213186 0)
(-0.0325028 0.0216302 0)
(-0.0353535 0.0217977 0)
(-0.0382036 0.0218238 0)
(-0.0410364 0.0217119 0)
(-0.043836 0.0214661 0)
(-0.0465867 0.0210912 0)
(-0.0492736 0.0205923 0)
(-0.0518824 0.019975 0)
(-0.0543994 0.0192453 0)
(-0.0568117 0.0184091 0)
(-0.059107 0.017473 0)
(-0.0612738 0.0164434 0)
(-0.0633016 0.0153271 0)
(-0.0651803 0.0141308 0)
(-0.066901 0.0128614 0)
(-0.0684553 0.0115259 0)
(-0.0698359 0.0101312 0)
(-0.0710361 0.00868456 0)
(-0.0720501 0.00719306 0)
(-0.0728731 0.00566395 0)
(-0.073501 0.00410454 0)
(-0.0739307 0.00252224 0)
(-0.0741597 0.000924505 0)
(-0.0741868 -0.000681084 0)
(-0.0740113 -0.00228687 0)