/*--------------------------------*- C++ -*----------------------------------*\
| =========                 |                                                 |
| \\      /  F ield         | OpenFOAM: The Open Source CFD Toolbox           |
|  \\    /   O peration     | Version:  4.1                                   |
|   \\  /    A nd           | Web:      www.OpenFOAM.org                      |
|    \\/     M anipulation  |                                                 |
\*---------------------------------------------------------------------------*/
FoamFile
{
    version     2.0;
    format      ascii;
    class       volVectorField;
    location    "0.0227";
    object      U;
}
// * * * * * * * * * * * * * * * * * * * * * * * * * * * * * * * * * * * * * //

dimensions      [0 1 -1 0 0 0 0];

internalField   nonuniform List<vector> 
441
(
(0.00331856 -0.00476307 0)
(0.00792749 -0.00289187 0)
(-0.000723132 -2.35395e-165 0)
(0.00153162 -2.33893e-266 0)
(-0.0102898 -0.00612703 0)
(-0.00153162 -2.5216e-232 0)
(-1.09735e-202 -3.66772e-203 0)
(-9.16728e-204 -4.49291e-228 0)
(-1.31806e-212 -1.85672e-213 0)
(-0.00465645 7.11127e-266 0)
(-0.0548197 0.0186269 0)
(-0.0702113 0.010192 0)
(-0.0811719 0.00507965 0)
(-0.0753091 0.00118484 0)
(-0.0671708 -0.00039713 0)
(-0.0515078 -0.00168466 0)
(-0.0366857 -0.00159681 0)
(-0.0204771 -0.00178018 0)
(-0.00771157 -0.000429555 0)
(-0.000775582 0.000223369 0)
(0.0032086 0.0020732 0)
(0.00286156 -0.00625895 0)
(-0.00429697 0.00696289 0)
(-0.0298449 0.00763234 0)
(-0.0575874 0.0114761 0)
(-0.0958719 0.00846719 0)
(-0.127833 -0.00573383 0)
(-0.155548 -0.000782701 0)
(-0.180209 0.000974422 0)
(-0.200783 0.00937191 0)
(-0.222182 0.0484718 0)
(-0.237101 0.045338 0)
(-0.233044 0.0164433 0)
(-0.226362 -0.00036584 0)
(-0.202827 -0.0156878 0)
(-0.175454 -0.0234322 0)
(-0.137274 -0.0297199 0)
(-0.100029 -0.0292549 0)
(-0.0613138 -0.0282349 0)
(-0.0298606 -0.0189266 0)
(-0.00924561 -0.0118757 0)
(0.00291641 0.000548948 0)
(0.00597999 -0.00398005 0)
(-0.00728928 0.0294082 0)
(-0.0517895 0.05181 0)
(-0.106024 0.0641175 0)
(-0.166777 0.0631433 0)
(-0.226777 0.0563324 0)
(-0.286453 0.0504251 0)
(-0.329177 0.0436987 0)
(-0.370466 0.040257 0)
(-0.386082 0.0399779 0)
(-0.377356 0.0302416 0)
(-0.363834 0.000457705 0)
(-0.34263 -0.0246046 0)
(-0.305811 -0.0495345 0)
(-0.262639 -0.0651782 0)
(-0.206579 -0.0772739 0)
(-0.151505 -0.0765727 0)
(-0.0942147 -0.0722881 0)
(-0.0478204 -0.0515095 0)
(-0.0151446 -0.0328471 0)
(0.00395576 -0.00370029 0)
(0.00610052 -0.00509186 0)
(-0.0120338 0.0662864 0)
(-0.0788292 0.106531 0)
(-0.151667 0.128371 0)
(-0.232254 0.129494 0)
(-0.308223 0.116275 0)
(-0.377859 0.102697 0)
(-0.433031 0.0855989 0)
(-0.475136 0.067823 0)
(-0.495771 0.0531555 0)
(-0.494122 0.022796 0)
(-0.475257 -0.0191898 0)
(-0.445208 -0.0585362 0)
(-0.395938 -0.0965528 0)
(-0.338826 -0.122506 0)
(-0.266159 -0.141993 0)
(-0.195056 -0.141164 0)
(-0.120519 -0.133274 0)
(-0.0609972 -0.0973289 0)
(-0.0175456 -0.0648896 0)
(0.00597718 -0.0103155 0)
(6.05426e-165 0.00152513 0)
(-0.0166098 0.113948 0)
(-0.106693 0.190706 0)
(-0.19206 0.2164 0)
(-0.289044 0.21886 0)
(-0.377259 0.200539 0)
(-0.459885 0.174346 0)
(-0.523775 0.140278 0)
(-0.573068 0.102565 0)
(-0.596463 0.0595967 0)
(-0.596731 0.0100886 0)
(-0.576476 -0.048175 0)
(-0.540371 -0.103286 0)
(-0.481597 -0.156054 0)
(-0.412423 -0.194006 0)
(-0.323271 -0.221551 0)
(-0.236685 -0.220916 0)
(-0.14258 -0.207089 0)
(-0.0706867 -0.15299 0)
(-0.0140795 -0.100438 0)
(0.012262 -0.0143419 0)
(-5.08019e-266 0.00485456 0)
(-0.0706085 0.177183 0)
(-0.144073 0.280346 0)
(-0.242035 0.312389 0)
(-0.341739 0.314672 0)
(-0.439353 0.288157 0)
(-0.527615 0.249731 0)
(-0.600024 0.199055 0)
(-0.654736 0.141114 0)
(-0.685484 0.0761738 0)
(-0.693305 0.00294991 0)
(-0.675278 -0.0763646 0)
(-0.63774 -0.153275 0)
(-0.571699 -0.225688 0)
(-0.491924 -0.280436 0)
(-0.38598 -0.319523 0)
(-0.282343 -0.320959 0)
(-0.166322 -0.301748 0)
(-0.0797093 -0.224272 0)
(-0.00656052 -0.150652 0)
(0.0158939 -0.0113097 0)
(-0.0194182 0.0754738 0)
(-0.0957593 0.25469 0)
(-0.178604 0.362712 0)
(-0.282531 0.412555 0)
(-0.392026 0.415716 0)
(-0.498358 0.385365 0)
(-0.596565 0.334554 0)
(-0.678298 0.266812 0)
(-0.742532 0.187947 0)
(-0.782106 0.0980581 0)
(-0.798184 0.000285402 0)
(-0.785339 -0.103889 0)
(-0.749192 -0.206049 0)
(-0.678414 -0.302361 0)
(-0.589657 -0.378395 0)
(-0.465418 -0.432167 0)
(-0.343869 -0.438534 0)
(-0.198575 -0.411282 0)
(-0.0993944 -0.310033 0)
(0.00576743 -0.197464 0)
(5.32615e-266 -0.00397346 0)
(-0.0137597 0.122319 0)
(-0.0878493 0.337416 0)
(-0.191981 0.467856 0)
(-0.310062 0.526698 0)
(-0.432723 0.531 0)
(-0.550978 0.493228 0)
(-0.659824 0.43017 0)
(-0.753392 0.345139 0)
(-0.829026 0.245349 0)
(-0.881263 0.131458 0)
(-0.909601 0.00644424 0)
(-0.906514 -0.1262 0)
(-0.87655 -0.259927 0)
(-0.80516 -0.386838 0)
(-0.709626 -0.492854 0)
(-0.567799 -0.568177 0)
(-0.42435 -0.586275 0)
(-0.248355 -0.550955 0)
(-0.12582 -0.424645 0)
(-0.000767733 -0.258219 0)
(1.76651e-24 -1.77353e-24 0)
(-0.011733 0.174174 0)
(-0.0902512 0.431215 0)
(-0.20926 0.583775 0)
(-0.340375 0.651829 0)
(-0.477241 0.655809 0)
(-0.608023 0.611352 0)
(-0.72957 0.536505 0)
(-0.836437 0.435317 0)
(-0.926041 0.315806 0)
(-0.993701 0.17829 0)
(-1.03756 0.0260352 0)
(-1.04922 -0.13724 0)
(-1.03078 -0.306312 0)
(-0.964451 -0.469992 0)
(-0.866243 -0.613854 0)
(-0.707316 -0.719126 0)
(-0.539219 -0.754681 0)
(-0.32211 -0.712923 0)
(-0.1676 -0.551761 0)
(-0.00310766 -0.328469 0)
(7.18705e-77 -4.41627e-25 0)
(-0.0102774 0.225173 0)
(-0.0910875 0.536604 0)
(-0.222821 0.719043 0)
(-0.366302 0.79554 0)
(-0.516747 0.799504 0)
(-0.660402 0.745945 0)
(-0.79457 0.65923 0)
(-0.915825 0.541632 0)
(-1.0207 0.403022 0)
(-1.10678 0.242607 0)
(-1.17024 0.0621732 0)
(-1.20271 -0.133907 0)
(-1.20311 -0.344506 0)
(-1.15001 -0.553399 0)
(-1.05586 -0.749573 0)
(-0.883591 -0.899252 0)
(-0.687955 -0.970131 0)
(-0.420891 -0.929596 0)
(-0.220947 -0.739516 0)
(-0.00503227 -0.436937 0)
(1.98117e-164 -1.79676e-77 0)
(-0.0110592 0.272603 0)
(-0.0991411 0.642116 0)
(-0.245502 0.857117 0)
(-0.402344 0.943866 0)
(-0.565905 0.948693 0)
(-0.72171 0.887648 0)
(-0.867084 0.791299 0)
(-1.00189 0.660485 0)
(-1.12134 0.506678 0)
(-1.22708 0.32738 0)
(-1.31251 0.122491 0)
(-1.37186 -0.104566 0)
(-1.39883 -0.357626 0)
(-1.3704 -0.617783 0)
(-1.29104 -0.877698 0)
(-1.11503 -1.08909 0)
(-0.894435 -1.21288 0)
(-0.572378 -1.18458 0)
(-0.313618 -0.958286 0)
(-0.0581805 -0.55802 0)
(1.17134e-265 0.00948309 0)
(-0.0129291 0.336568 0)
(-0.107825 0.773275 0)
(-0.267494 1.02405 0)
(-0.435646 1.11695 0)
(-0.609309 1.12041 0)
(-0.774357 1.04749 0)
(-0.927434 0.940424 0)
(-1.07284 0.795847 0)
(-1.20405 0.628627 0)
(-1.32804 0.433356 0)
(-1.43566 0.206861 0)
(-1.52523 -0.0485372 0)
(-1.58577 -0.346269 0)
(-1.59325 -0.663323 0)
(-1.54302 -1.00518 0)
(-1.37758 -1.3009 0)
(-1.13924 -1.51254 0)
(-0.752765 -1.52029 0)
(-0.404586 -1.25 0)
(-0.0547342 -0.764621 0)
(0.0379323 -0.0568686 0)
(-0.0179232 0.389156 0)
(-0.12689 0.89379 0)
(-0.30674 1.18218 0)
(-0.488366 1.28253 0)
(-0.669036 1.28575 0)
(-0.838943 1.20339 0)
(-0.991697 1.08898 0)
(-1.14043 0.935727 0)
(-1.2743 0.761646 0)
(-1.40986 0.558534 0)
(-1.53294 0.320073 0)
(-1.65166 0.0457407 0)
(-1.74688 -0.28809 0)
(-1.80209 -0.660201 0)
(-1.79625 -1.08997 0)
(-1.66637 -1.49427 0)
(-1.43402 -1.8325 0)
(-0.98005 -1.9248 0)
(-0.54682 -1.64941 0)
(0.0335007 -1.00493 0)
(1.85258e-231 -0.00948309 0)
(-0.0245711 0.484317 0)
(-0.147108 1.06525 0)
(-0.343681 1.38943 0)
(-0.533393 1.48045 0)
(-0.713326 1.47415 0)
(-0.87947 1.37052 0)
(-1.02165 1.24381 0)
(-1.16236 1.07841 0)
(-1.28604 0.898552 0)
(-1.41919 0.691657 0)
(-1.54366 0.447909 0)
(-1.6785 0.164697 0)
(-1.80065 -0.19743 0)
(-1.90366 -0.615455 0)
(-1.95795 -1.14269 0)
(-1.89733 -1.66787 0)
(-1.7211 -2.20097 0)
(-1.26861 -2.42215 0)
(-0.766455 -2.26045 0)
(-0.00367759 -1.34028 0)
(4.72122e-202 3.95633e-184 0)
(-0.0424879 0.553556 0)
(-0.195486 1.20677 0)
(-0.418855 1.56431 0)
(-0.616262 1.64646 0)
(-0.780295 1.62986 0)
(-0.92725 1.50796 0)
(-1.03522 1.37117 0)
(-1.1465 1.19839 0)
(-1.23406 1.01832 0)
(-1.34124 0.816076 0)
(-1.43971 0.579612 0)
(-1.56907 0.303994 0)
(-1.69364 -0.0615895 0)
(-1.84021 -0.500568 0)
(-1.95171 -1.09142 0)
(-2.00901 -1.72968 0)
(-1.93391 -2.44999 0)
(-1.59191 -2.88782 0)
(-1.06581 -2.89516 0)
(-0.00701141 -1.79517 0)
(1.58253e-183 2.9975e-184 0)
(-0.062478 0.729881 0)
(-0.242286 1.44592 0)
(-0.476391 1.81927 0)
(-0.662985 1.84305 0)
(-0.789858 1.79187 0)
(-0.895051 1.62579 0)
(-0.945736 1.4668 0)
(-1.00205 1.27744 0)
(-1.02685 1.09433 0)
(-1.07737 0.897628 0)
(-1.1173 0.674337 0)
(-1.2026 0.419244 0)
(-1.29322 0.0699409 0)
(-1.44326 -0.356183 0)
(-1.59751 -0.979735 0)
(-1.77237 -1.68437 0)
(-1.88348 -2.6272 0)
(-1.78206 -3.29869 0)
(-1.47353 -3.86702 0)
(-0.426922 -2.44705 0)
(3.96605e-254 -3.95633e-184 0)
(-0.127799 0.843649 0)
(-0.376029 1.60729 0)
(-0.608922 1.97907 0)
(-0.759321 1.94972 0)
(-0.786391 1.86049 0)
(-0.801723 1.6584 0)
(-0.737856 1.4785 0)
(-0.69599 1.27789 0)
(-0.614644 1.09435 0)
(-0.574483 0.907855 0)
(-0.519806 0.705523 0)
(-0.532637 0.483944 0)
(-0.549215 0.180384 0)
(-0.681919 -0.189208 0)
(-0.829434 -0.756908 0)
(-1.16236 -1.43423 0)
(-1.43896 -2.41844 0)
(-1.91489 -3.29857 0)
(-1.85503 -4.17531 0)
(-1.97692 -3.33938 0)
(-2.35683e-264 -0.201677 0)
(-0.180761 1.25434 0)
(-0.454674 1.93108 0)
(-0.609087 2.22434 0)
(-0.650814 2.0207 0)
(-0.521052 1.84798 0)
(-0.393338 1.5771 0)
(-0.179123 1.36775 0)
(-0.00592523 1.1545 0)
(0.203245 0.974793 0)
(0.355466 0.804131 0)
(0.519814 0.630955 0)
(0.603132 0.452063 0)
(0.68209 0.213914 0)
(0.623754 -0.0686089 0)
(0.532941 -0.511309 0)
(0.196564 -1.05915 0)
(-0.192236 -1.90324 0)
(-0.911501 -2.84054 0)
(-1.40348 -3.88899 0)
(-1.8824 -4.17527 0)
(-0.806708 -2.19643 0)
(-0.397609 1.44421 0)
(-0.728901 2.00671 0)
(-0.55678 2.16911 0)
(-0.334579 1.84512 0)
(0.138415 1.60442 0)
(0.502236 1.30939 0)
(0.942376 1.09372 0)
(1.27805 0.894189 0)
(1.63022 0.735062 0)
(1.8899 0.594062 0)
(2.15099 0.459228 0)
(2.30727 0.32895 0)
(2.46244 0.161112 0)
(2.45318 -0.0260442 0)
(2.4338 -0.327239 0)
(2.10755 -0.685989 0)
(1.7552 -1.3073 0)
(0.881485 -2.05188 0)
(0.135993 -3.20029 0)
(-0.840147 -3.86335 0)
(-0.688754 -2.92319 0)
(-0.251285 2.44263 0)
(-0.0800852 2.08488 0)
(0.709303 1.88111 0)
(1.33538 1.31899 0)
(2.10484 1.03317 0)
(2.66488 0.76845 0)
(3.23434 0.600043 0)
(3.65336 0.464378 0)
(4.05585 0.364692 0)
(4.34649 0.283792 0)
(4.62432 0.211727 0)
(4.79311 0.144982 0)
(4.95811 0.0629666 0)
(4.96777 -0.0287904 0)
(4.97661 -0.176424 0)
(4.70331 -0.358513 0)
(4.41698 -0.704802 0)
(3.5875 -1.18537 0)
(2.71026 -2.227 0)
(1.02192 -3.30527 0)
(-0.0410469 -3.7997 0)
(1.67134 1.67372 0)
(2.72377 0.980441 0)
(4.57872 0.752655 0)
(5.4188 0.424087 0)
(6.27128 0.282356 0)
(6.75224 0.1706 0)
(7.1914 0.111936 0)
(7.46856 0.0713207 0)
(7.71898 0.0463646 0)
(7.87912 0.0288149 0)
(8.029 0.0149375 0)
(8.1029 0.00286461 0)
(8.17927 -0.0128072 0)
(8.1482 -0.0296571 0)
(8.13067 -0.0632088 0)
(7.90044 -0.0985164 0)
(7.69708 -0.193838 0)
(6.98387 -0.294884 0)
(6.2667 -0.63553 0)
(4.05222 -1.01108 0)
(2.01857 -1.83609 0)
)
;

boundaryField
{
    movingWall
    {
        type            fixedValue;
        value           uniform (10 0 0);
    }
    fixedWalls
    {
        type            noSlip;
    }
    frontAndBack
    {
        type            empty;
    }
}


// ************************************************************************* //
