/*--------------------------------*- C++ -*----------------------------------*\
| =========                 |                                                 |
| \\      /  F ield         | OpenFOAM: The Open Source CFD Toolbox           |
|  \\    /   O peration     | Version:  4.1                                   |
|   \\  /    A nd           | Web:      www.OpenFOAM.org                      |
|    \\/     M anipulation  |                                                 |
\*---------------------------------------------------------------------------*/
FoamFile
{
    version     2.0;
    format      ascii;
    class       volVectorField;
    location    "0.0847";
    object      U;
}
// * * * * * * * * * * * * * * * * * * * * * * * * * * * * * * * * * * * * * //

dimensions      [0 1 -1 0 0 0 0];

internalField   nonuniform List<vector> 
441
(
(0.003714 -0.00481341 0)
(0.00970415 -0.00253957 0)
(-0.000634893 -2.20676e-165 0)
(0.00195433 -3.30921e-266 0)
(-0.00837565 -0.00781769 0)
(-0.00195433 -3.0447e-232 0)
(-1.13882e-202 -5.57551e-203 0)
(-1.39379e-203 -7.31511e-228 0)
(-1.71492e-212 -3.19188e-213 0)
(-0.00612345 9.08505e-266 0)
(-0.0750445 0.024495 0)
(-0.0943048 0.0128151 0)
(-0.106251 0.00586893 0)
(-0.0935127 0.000398432 0)
(-0.0769775 -0.00164612 0)
(-0.0513041 -0.00301311 0)
(-0.0291779 -0.00215898 0)
(-0.00944372 -0.00160697 0)
(0.0025565 0.000725131 0)
(0.00439135 0.00148881 0)
(0.00454491 0.00298082 0)
(0.0038155 -0.00841914 0)
(-0.000961813 0.00681756 0)
(-0.0274175 0.00846457 0)
(-0.0592482 0.0107143 0)
(-0.106762 0.0108462 0)
(-0.151679 -0.00326473 0)
(-0.194004 -0.000157503 0)
(-0.234748 0.00165751 0)
(-0.270934 0.0131986 0)
(-0.307392 0.0668135 0)
(-0.332178 0.0615048 0)
(-0.326452 0.0188161 0)
(-0.311528 -0.00726582 0)
(-0.269268 -0.0304589 0)
(-0.21958 -0.0407497 0)
(-0.156926 -0.046108 0)
(-0.100257 -0.0395269 0)
(-0.0498014 -0.0314085 0)
(-0.0157182 -0.0140393 0)
(-0.00126462 -0.0042019 0)
(0.00491655 0.00618147 0)
(0.00757465 -0.00817421 0)
(-0.00520169 0.028306 0)
(-0.0542055 0.0568941 0)
(-0.120739 0.0767894 0)
(-0.202128 0.0834359 0)
(-0.286401 0.0830896 0)
(-0.37704 0.0801696 0)
(-0.45089 0.0744291 0)
(-0.5234 0.0698581 0)
(-0.55897 0.0658386 0)
(-0.555007 0.0444908 0)
(-0.536888 -0.00657656 0)
(-0.499909 -0.0506256 0)
(-0.434653 -0.0913459 0)
(-0.356784 -0.113012 0)
(-0.262546 -0.122624 0)
(-0.175099 -0.10809 0)
(-0.0950357 -0.0866691 0)
(-0.0386349 -0.046703 0)
(-0.00827325 -0.0195945 0)
(0.00634481 0.00702231 0)
(0.00634763 -0.0111225 0)
(-0.0162464 0.0703681 0)
(-0.0970559 0.123963 0)
(-0.192496 0.161083 0)
(-0.305029 0.176875 0)
(-0.418401 0.174427 0)
(-0.530173 0.166073 0)
(-0.627039 0.148939 0)
(-0.70675 0.123767 0)
(-0.753781 0.0956918 0)
(-0.763236 0.0391498 0)
(-0.739567 -0.0374303 0)
(-0.689665 -0.109675 0)
(-0.60366 -0.174788 0)
(-0.500336 -0.212705 0)
(-0.374996 -0.229355 0)
(-0.256591 -0.20648 0)
(-0.144895 -0.169573 0)
(-0.0643151 -0.0999146 0)
(-0.015878 -0.0505775 0)
(0.00798591 0.00464015 0)
(6.91479e-165 0.00158691 0)
(-0.0246517 0.13125 0)
(-0.141103 0.232344 0)
(-0.260472 0.283285 0)
(-0.402507 0.308205 0)
(-0.54069 0.306345 0)
(-0.678273 0.28745 0)
(-0.794957 0.249872 0)
(-0.891842 0.195842 0)
(-0.949189 0.123045 0)
(-0.966519 0.0306871 0)
(-0.944092 -0.0798845 0)
(-0.886399 -0.185765 0)
(-0.78435 -0.281044 0)
(-0.657756 -0.340589 0)
(-0.499731 -0.367295 0)
(-0.347937 -0.336692 0)
(-0.197762 -0.280101 0)
(-0.0903312 -0.173987 0)
(-0.018355 -0.0927913 0)
(0.0145971 -8.17322e-05 0)
(-5.60479e-266 0.00579818 0)
(-0.0898201 0.216278 0)
(-0.19721 0.357738 0)
(-0.340571 0.424353 0)
(-0.496096 0.45694 0)
(-0.655515 0.451276 0)
(-0.809539 0.420972 0)
(-0.94554 0.362766 0)
(-1.05774 0.278903 0)
(-1.13249 0.169572 0)
(-1.16714 0.0343556 0)
(-1.15308 -0.118599 0)
(-1.09633 -0.269175 0)
(-0.983202 -0.405103 0)
(-0.836406 -0.496891 0)
(-0.644526 -0.541723 0)
(-0.455311 -0.5074 0)
(-0.260062 -0.430392 0)
(-0.12027 -0.277309 0)
(-0.0206705 -0.158767 0)
(0.0161356 0.00223341 0)
(-0.0231927 0.094648 0)
(-0.125238 0.324842 0)
(-0.248898 0.483454 0)
(-0.406609 0.580288 0)
(-0.581242 0.622282 0)
(-0.759206 0.618267 0)
(-0.933616 0.576607 0)
(-1.08971 0.497101 0)
(-1.22297 0.382526 0)
(-1.31833 0.232185 0)
(-1.37308 0.0517717 0)
(-1.37394 -0.151029 0)
(-1.32495 -0.354645 0)
(-1.20726 -0.541951 0)
(-1.04484 -0.67781 0)
(-0.818168 -0.750348 0)
(-0.588966 -0.718874 0)
(-0.335347 -0.617671 0)
(-0.16047 -0.410086 0)
(-0.00756625 -0.231078 0)
(5.97006e-266 -0.00403391 0)
(-0.017119 0.156702 0)
(-0.119927 0.443152 0)
(-0.271936 0.639642 0)
(-0.450223 0.757466 0)
(-0.644775 0.80973 0)
(-0.841891 0.803917 0)
(-1.03482 0.751761 0)
(-1.21199 0.651975 0)
(-1.36745 0.507943 0)
(-1.48799 0.319103 0)
(-1.56885 0.0903965 0)
(-1.59257 -0.167837 0)
(-1.56091 -0.43534 0)
(-1.44823 -0.6875 0)
(-1.27796 -0.885305 0)
(-1.02104 -1.00186 0)
(-0.749504 -0.988594 0)
(-0.432404 -0.865356 0)
(-0.208269 -0.600434 0)
(-0.00368577 -0.328857 0)
(2.605e-24 -1.06863e-24 0)
(-0.0152041 0.228009 0)
(-0.123452 0.577759 0)
(-0.292089 0.812076 0)
(-0.485146 0.951209 0)
(-0.695913 1.01256 0)
(-0.908214 1.00663 0)
(-1.11772 0.945732 0)
(-1.31387 0.828522 0)
(-1.49141 0.658242 0)
(-1.63807 0.432915 0)
(-1.74775 0.156934 0)
(-1.80089 -0.159532 0)
(-1.79572 -0.497536 0)
(-1.70014 -0.826263 0)
(-1.53442 -1.10281 0)
(-1.25708 -1.28214 0)
(-0.947999 -1.30385 0)
(-0.562186 -1.16439 0)
(-0.27913 -0.830961 0)
(-0.0049944 -0.447406 0)
(1.05985e-76 -6.51251e-25 0)
(-0.0131873 0.295916 0)
(-0.120776 0.721751 0)
(-0.298515 1.00203 0)
(-0.499903 1.16184 0)
(-0.720165 1.23317 0)
(-0.941761 1.22563 0)
(-1.16132 1.15761 0)
(-1.3712 1.02519 0)
(-1.566 0.832307 0)
(-1.73652 0.574714 0)
(-1.87512 0.25355 0)
(-1.96211 -0.121071 0)
(-1.99213 -0.535403 0)
(-1.92742 -0.951483 0)
(-1.7825 -1.32749 0)
(-1.50189 -1.59439 0)
(-1.16605 -1.68198 0)
(-0.713904 -1.54479 0)
(-0.363302 -1.15192 0)
(-0.00717955 -0.623564 0)
(2.9463e-164 -2.64963e-77 0)
(-0.0131548 0.358482 0)
(-0.121333 0.861311 0)
(-0.303836 1.18884 0)
(-0.507697 1.37054 0)
(-0.729348 1.45266 0)
(-0.951367 1.4457 0)
(-1.17078 1.37401 0)
(-1.38424 1.23169 0)
(-1.58597 1.02313 0)
(-1.77209 0.741167 0)
(-1.93341 0.383138 0)
(-2.05406 -0.0429289 0)
(-2.12432 -0.530167 0)
(-2.10477 -1.03683 0)
(-2.00088 -1.52489 0)
(-1.74354 -1.9025 0)
(-1.40532 -2.08685 0)
(-0.90556 -1.97564 0)
(-0.488177 -1.52585 0)
(-0.0810196 -0.824156 0)
(1.78771e-265 0.0133144 0)
(-0.0136192 0.43129 0)
(-0.117635 1.01461 0)
(-0.297111 1.38986 0)
(-0.49399 1.58802 0)
(-0.705601 1.67797 0)
(-0.915805 1.667 0)
(-1.12115 1.59111 0)
(-1.32381 1.43992 0)
(-1.51728 1.22034 0)
(-1.70491 0.921455 0)
(-1.8767 0.535627 0)
(-2.02367 0.0688547 0)
(-2.1335 -0.48404 0)
(-2.16873 -1.07712 0)
(-2.12543 -1.68748 0)
(-1.92183 -2.19657 0)
(-1.6111 -2.5187 0)
(-1.08358 -2.47648 0)
(-0.586436 -1.97055 0)
(-0.0760351 -1.1317 0)
(0.0532574 -0.076755 0)
(-0.0168131 0.485346 0)
(-0.120497 1.14185 0)
(-0.298285 1.56228 0)
(-0.483577 1.77571 0)
(-0.673918 1.87266 0)
(-0.858618 1.85867 0)
(-1.03126 1.78109 0)
(-1.20412 1.62631 0)
(-1.36735 1.40401 0)
(-1.53622 1.10013 0)
(-1.69779 0.70271 0)
(-1.85684 0.214374 0)
(-1.99606 -0.382371 0)
(-2.09072 -1.04403 0)
(-2.12333 -1.76628 0)
(-2.00763 -2.41853 0)
(-1.77259 -2.91835 0)
(-1.24335 -3.00928 0)
(-0.71539 -2.52697 0)
(0.0430287 -1.4711 0)
(2.46014e-231 -0.0133144 0)
(-0.0212678 0.571573 0)
(-0.121732 1.29913 0)
(-0.290539 1.75684 0)
(-0.45383 1.96478 0)
(-0.608989 2.05622 0)
(-0.752401 2.02477 0)
(-0.874099 1.93867 0)
(-0.997125 1.7762 0)
(-1.10794 1.55333 0)
(-1.23421 1.25203 0)
(-1.36098 0.856303 0)
(-1.50829 0.36726 0)
(-1.65799 -0.250111 0)
(-1.80268 -0.950181 0)
(-1.9193 -1.76942 0)
(-1.92765 -2.55142 0)
(-1.82759 -3.2813 0)
(-1.40343 -3.55189 0)
(-0.892597 -3.25036 0)
(-0.00300831 -1.88496 0)
(5.8189e-202 4.58317e-184 0)
(-0.0371615 0.621451 0)
(-0.152024 1.40507 0)
(-0.321997 1.89069 0)
(-0.461883 2.08877 0)
(-0.564627 2.16982 0)
(-0.648827 2.12054 0)
(-0.693187 2.02576 0)
(-0.742507 1.85913 0)
(-0.77254 1.64181 0)
(-0.830488 1.35411 0)
(-0.892303 0.978329 0)
(-1.0027 0.514115 0)
(-1.13215 -0.0845737 0)
(-1.31348 -0.778522 0)
(-1.49793 -1.6331 0)
(-1.66486 -2.50675 0)
(-1.73528 -3.4259 0)
(-1.5286 -3.95278 0)
(-1.10833 -3.90375 0)
(-0.0114348 -2.39409 0)
(1.83327e-183 -1.33932e-184 0)
(-0.0557841 0.76896 0)
(-0.185944 1.5883 0)
(-0.346568 2.07629 0)
(-0.449499 2.20889 0)
(-0.483372 2.25048 0)
(-0.490752 2.15418 0)
(-0.440289 2.03679 0)
(-0.396668 1.85652 0)
(-0.326275 1.64332 0)
(-0.292436 1.37337 0)
(-0.264022 1.02866 0)
(-0.304563 0.609667 0)
(-0.380242 0.0591638 0)
(-0.55414 -0.580842 0)
(-0.778987 -1.42105 0)
(-1.08052 -2.31041 0)
(-1.37522 -3.42216 0)
(-1.49616 -4.18546 0)
(-1.39701 -4.78432 0)
(-0.465799 -3.04053 0)
(4.40005e-254 -4.58317e-184 0)
(-0.121616 0.849461 0)
(-0.319597 1.6828 0)
(-0.471999 2.14931 0)
(-0.526133 2.21599 0)
(-0.441948 2.21048 0)
(-0.338307 2.07261 0)
(-0.149491 1.93277 0)
(0.0165719 1.74424 0)
(0.217598 1.53931 0)
(0.364506 1.29446 0)
(0.507407 0.992863 0)
(0.553891 0.636468 0)
(0.563412 0.168822 0)
(0.412119 -0.370318 0)
(0.202389 -1.09869 0)
(-0.25649 -1.89947 0)
(-0.709815 -2.98414 0)
(-1.45344 -3.92982 0)
(-1.64544 -4.8433 0)
(-2.07306 -3.86738 0)
(-2.59078e-264 -0.215936 0)
(-0.178065 1.23189 0)
(-0.417067 1.94308 0)
(-0.504152 2.30528 0)
(-0.457885 2.17905 0)
(-0.219878 2.07648 0)
(0.0275788 1.86126 0)
(0.37121 1.68848 0)
(0.675425 1.48953 0)
(1.013 1.29758 0)
(1.28112 1.08547 0)
(1.54179 0.8389 0)
(1.69023 0.558779 0)
(1.79732 0.197653 0)
(1.72125 -0.210307 0)
(1.57007 -0.76337 0)
(1.12431 -1.38196 0)
(0.587186 -2.25686 0)
(-0.345297 -3.20594 0)
(-1.08003 -4.25519 0)
(-1.8415 -4.5356 0)
(-0.863743 -2.31656 0)
(-0.40055 1.41042 0)
(-0.726064 1.98023 0)
(-0.519936 2.18437 0)
(-0.239578 1.9147 0)
(0.316739 1.72592 0)
(0.7809 1.47344 0)
(1.33647 1.28685 0)
(1.79395 1.10038 0)
(2.26924 0.935612 0)
(2.64245 0.768704 0)
(2.99921 0.58627 0)
(3.22031 0.389728 0)
(3.40266 0.141293 0)
(3.37333 -0.127468 0)
(3.29203 -0.498277 0)
(2.86219 -0.894804 0)
(2.38742 -1.51562 0)
(1.36356 -2.23329 0)
(0.458107 -3.35272 0)
(-0.706865 -4.00559 0)
(-0.701225 -2.96403 0)
(-0.257325 2.42046 0)
(-0.104463 2.05712 0)
(0.682446 1.86916 0)
(1.32947 1.33414 0)
(2.14613 1.07599 0)
(2.77435 0.834324 0)
(3.43004 0.681384 0)
(3.94489 0.552404 0)
(4.44676 0.449557 0)
(4.82996 0.355257 0)
(5.18491 0.259583 0)
(5.40406 0.160782 0)
(5.58553 0.0414051 0)
(5.57075 -0.0868417 0)
(5.51783 -0.262274 0)
(5.15104 -0.455904 0)
(4.76099 -0.789867 0)
(3.82934 -1.24447 0)
(2.86605 -2.25338 0)
(1.09218 -3.33022 0)
(-0.0462589 -3.79889 0)
(1.66715 1.66947 0)
(2.70248 0.974508 0)
(4.54238 0.748271 0)
(5.38107 0.423778 0)
(6.2488 0.286441 0)
(6.75969 0.178126 0)
(7.24035 0.121367 0)
(7.56491 0.0810051 0)
(7.86393 0.0545374 0)
(8.06724 0.0339279 0)
(8.2498 0.0155385 0)
(8.33938 -0.00174917 0)
(8.4119 -0.0228628 0)
(8.35411 -0.0436516 0)
(8.29292 -0.0789371 0)
(8.00576 -0.111839 0)
(7.74995 -0.200911 0)
(6.99594 -0.293362 0)
(6.26244 -0.62517 0)
(4.04587 -0.997344 0)
(2.00525 -1.81794 0)
)
;

boundaryField
{
    movingWall
    {
        type            fixedValue;
        value           uniform (10 0 0);
    }
    fixedWalls
    {
        type            noSlip;
    }
    frontAndBack
    {
        type            empty;
    }
}


// ************************************************************************* //
