/*--------------------------------*- C++ -*----------------------------------*\
| =========                 |                                                 |
| \\      /  F ield         | OpenFOAM: The Open Source CFD Toolbox           |
|  \\    /   O peration     | Version:  4.1                                   |
|   \\  /    A nd           | Web:      www.OpenFOAM.org                      |
|    \\/     M anipulation  |                                                 |
\*---------------------------------------------------------------------------*/
FoamFile
{
    version     2.0;
    format      ascii;
    class       volVectorField;
    location    "0.135";
    object      U;
}
// * * * * * * * * * * * * * * * * * * * * * * * * * * * * * * * * * * * * * //

dimensions      [0 1 -1 0 0 0 0];

internalField   nonuniform List<vector> 
6400
(
(8.01897e-06 -7.98391e-06 0)
(3.02686e-05 -1.163e-05 0)
(4.85012e-05 -8.08101e-06 0)
(5.6548e-05 1.20331e-06 0)
(5.01816e-05 1.42119e-05 0)
(2.69146e-05 2.93717e-05 0)
(-1.44793e-05 4.55372e-05 0)
(-7.43091e-05 6.18956e-05 0)
(-0.000152234 7.78765e-05 0)
(-0.00024746 9.30834e-05 0)
(-0.000358879 0.000107245 0)
(-0.000485172 0.000120179 0)
(-0.000624882 0.000131769 0)
(-0.000776467 0.000141946 0)
(-0.000938342 0.000150673 0)
(-0.0011089 0.000157941 0)
(-0.00128655 0.000163758 0)
(-0.00146971 0.000168148 0)
(-0.00165683 0.000171142 0)
(-0.00184642 0.000172781 0)
(-0.00203701 0.000173111 0)
(-0.0022272 0.000172182 0)
(-0.00241565 0.000170048 0)
(-0.00260106 0.000166764 0)
(-0.00278223 0.000162388 0)
(-0.00295798 0.000156979 0)
(-0.00312722 0.000150595 0)
(-0.00328892 0.000143298 0)
(-0.00344212 0.000135147 0)
(-0.00358591 0.000126205 0)
(-0.00371947 0.000116533 0)
(-0.00384203 0.000106193 0)
(-0.0039529 9.52481e-05 0)
(-0.00405145 8.37615e-05 0)
(-0.00413713 7.17973e-05 0)
(-0.00420944 5.94203e-05 0)
(-0.00426799 4.6696e-05 0)
(-0.00431242 3.36912e-05 0)
(-0.00434246 2.04733e-05 0)
(-0.00435792 7.11107e-06 0)
(-0.00435868 -6.32554e-06 0)
(-0.0043447 -1.97655e-05 0)
(-0.00431601 -3.31367e-05 0)
(-0.00427273 -4.63655e-05 0)
(-0.00421506 -5.93776e-05 0)
(-0.00414327 -7.20975e-05 0)
(-0.00405772 -8.44486e-05 0)
(-0.00395885 -9.6354e-05 0)
(-0.0038472 -0.000107736 0)
(-0.00372338 -0.000118517 0)
(-0.00358807 -0.000128618 0)
(-0.00344208 -0.000137963 0)
(-0.00328626 -0.000146474 0)
(-0.00312156 -0.000154076 0)
(-0.00294901 -0.000160696 0)
(-0.00276973 -0.00016626 0)
(-0.00258489 -0.000170699 0)
(-0.00239577 -0.000173949 0)
(-0.00220369 -0.000175946 0)
(-0.00201005 -0.000176633 0)
(-0.00181631 -0.00017596 0)
(-0.00162398 -0.00017388 0)
(-0.00143461 -0.000170357 0)
(-0.00124979 -0.000165363 0)
(-0.00107115 -0.000158881 0)
(-0.000900319 -0.000150909 0)
(-0.000738925 -0.000141462 0)
(-0.000588579 -0.000130575 0)
(-0.000450845 -0.000118312 0)
(-0.00032721 -0.000104774 0)
(-0.000219045 -9.01092e-05 0)
(-0.000127548 -7.45298e-05 0)
(-5.36743e-05 -5.83377e-05 0)
(1.966e-06 -4.19555e-05 0)
(3.92419e-05 -2.59741e-05 0)
(5.8689e-05 -1.12157e-05 0)
(6.17621e-05 1.1827e-06 0)
(5.11541e-05 9.68833e-06 0)
(3.12282e-05 1.23937e-05 0)
(8.1552e-06 8.08859e-06 0)
(1.17938e-05 -3.02081e-05 0)
(4.5532e-05 -4.50497e-05 0)
(6.52488e-05 -2.6948e-05 0)
(5.66712e-05 1.3783e-05 0)
(9.76162e-06 6.89381e-05 0)
(-8.16035e-05 0.0001324 0)
(-0.000220634 0.000199713 0)
(-0.000408325 0.000267679 0)
(-0.000644025 0.000334026 0)
(-0.000925881 0.000397158 0)
(-0.00125117 0.000455968 0)
(-0.00161656 0.000509707 0)
(-0.00201827 0.000557886 0)
(-0.00245226 0.000600208 0)
(-0.00291431 0.000636514 0)
(-0.00340011 0.000666754 0)
(-0.00390532 0.000690953 0)
(-0.00442563 0.000709196 0)
(-0.00495679 0.000721611 0)
(-0.00549465 0.000728359 0)
(-0.00603515 0.000729628 0)
(-0.00657438 0.000725622 0)
(-0.00710858 0.00071656 0)
(-0.00763413 0.000702673 0)
(-0.00814758 0.000684198 0)
(-0.00864566 0.000661379 0)
(-0.00912527 0.000634465 0)
(-0.0095835 0.000603707 0)
(-0.0100176 0.00056936 0)
(-0.010425 0.000531682 0)
(-0.0108034 0.000490932 0)
(-0.0111506 0.000447371 0)
(-0.0114647 0.000401265 0)
(-0.0117437 0.000352879 0)
(-0.0119863 0.000302485 0)
(-0.012191 0.000250355 0)
(-0.0123566 0.000196765 0)
(-0.0124821 0.000141998 0)
(-0.0125668 8.63371e-05 0)
(-0.0126102 3.00733e-05 0)
(-0.012612 -2.64993e-05 0)
(-0.0125719 -8.30814e-05 0)
(-0.0124902 -0.000139369 0)
(-0.0123672 -0.000195053 0)
(-0.0122034 -0.00024982 0)
(-0.0119996 -0.000303352 0)
(-0.0117569 -0.00035533 0)
(-0.0114766 -0.000405428 0)
(-0.0111601 -0.000453322 0)
(-0.0108093 -0.000498685 0)
(-0.010426 -0.00054119 0)
(-0.0100125 -0.000580514 0)
(-0.00957129 -0.000616336 0)
(-0.00910502 -0.000648339 0)
(-0.00861659 -0.000676215 0)
(-0.00810915 -0.000699664 0)
(-0.00758602 -0.000718399 0)
(-0.00705075 -0.000732145 0)
(-0.00650706 -0.000740646 0)
(-0.00595885 -0.000743666 0)
(-0.00541018 -0.000740993 0)
(-0.00486523 -0.000732443 0)
(-0.00432831 -0.000717867 0)
(-0.0038038 -0.000697154 0)
(-0.00329615 -0.000670243 0)
(-0.00280979 -0.000637129 0)
(-0.00234915 -0.000597883 0)
(-0.00191855 -0.000552661 0)
(-0.00152214 -0.000501736 0)
(-0.00116383 -0.00044553 0)
(-0.000847161 -0.000384658 0)
(-0.000575162 -0.000319997 0)
(-0.00035017 -0.000252772 0)
(-0.000173575 -0.000184684 0)
(-4.55098e-05 -0.000118085 0)
(3.55717e-05 -5.62078e-05 0)
(7.34255e-05 -3.4704e-06 0)
(7.46577e-05 3.41682e-05 0)
(4.96267e-05 4.88741e-05 0)
(1.26547e-05 3.10913e-05 0)
(8.44558e-06 -4.86172e-05 0)
(2.82181e-05 -6.48304e-05 0)
(2.10624e-05 -1.93042e-05 0)
(-3.14358e-05 6.83833e-05 0)
(-0.000142694 0.000183158 0)
(-0.000321152 0.000313704 0)
(-0.000571402 0.000451638 0)
(-0.000894991 0.00059082 0)
(-0.00129113 0.000726794 0)
(-0.00175723 0.000856363 0)
(-0.00228942 0.000977261 0)
(-0.00288279 0.00108792 0)
(-0.00353178 0.00118727 0)
(-0.00423031 0.00127466 0)
(-0.004972 0.00134971 0)
(-0.00575027 0.00141225 0)
(-0.00655845 0.00146231 0)
(-0.0073899 0.0015 0)
(-0.00823801 0.00152557 0)
(-0.00909629 0.00153932 0)
(-0.00995842 0.00154162 0)
(-0.0108182 0.00153288 0)
(-0.0116698 0.00151353 0)
(-0.0125075 0.00148404 0)
(-0.0133257 0.00144491 0)
(-0.0141194 0.00139663 0)
(-0.0148836 0.00133973 0)
(-0.0156136 0.00127472 0)
(-0.0163051 0.00120214 0)
(-0.0169541 0.00112253 0)
(-0.0175568 0.00103644 0)
(-0.0181097 0.000944408 0)
(-0.0186098 0.000847006 0)
(-0.0190541 0.000744794 0)
(-0.0194402 0.000638344 0)
(-0.0197658 0.000528233 0)
(-0.0200292 0.00041505 0)
(-0.0202288 0.000299388 0)
(-0.0203633 0.000181853 0)
(-0.0204319 6.30568e-05 0)
(-0.0204342 -5.63761e-05 0)
(-0.0203699 -0.000175813 0)
(-0.0202392 -0.00029461 0)
(-0.0200428 -0.000412115 0)
(-0.0197815 -0.000527667 0)
(-0.0194566 -0.000640597 0)
(-0.0190697 -0.000750229 0)
(-0.018623 -0.000855882 0)
(-0.0181188 -0.000956872 0)
(-0.01756 -0.00105251 0)
(-0.0169496 -0.00114212 0)
(-0.0162912 -0.00122502 0)
(-0.0155887 -0.00130055 0)
(-0.0148464 -0.00136803 0)
(-0.0140689 -0.00142683 0)
(-0.0132611 -0.00147634 0)
(-0.0124283 -0.00151594 0)
(-0.0115761 -0.00154509 0)
(-0.0107103 -0.00156326 0)
(-0.00983712 -0.00156996 0)
(-0.00896287 -0.00156478 0)
(-0.00809411 -0.00154734 0)
(-0.00723754 -0.00151736 0)
(-0.00639998 -0.00147463 0)
(-0.00558831 -0.00141907 0)
(-0.00480939 -0.00135068 0)
(-0.00406998 -0.00126967 0)
(-0.00337667 -0.0011764 0)
(-0.00273576 -0.00107147 0)
(-0.00215311 -0.000955805 0)
(-0.00163396 -0.000830712 0)
(-0.00118274 -0.00069801 0)
(-0.000802789 -0.000560198 0)
(-0.000496018 -0.00042068 0)
(-0.00026248 -0.000284061 0)
(-9.98452e-05 -0.000156545 0)
(-2.75381e-06 -4.64491e-05 0)
(3.79144e-05 3.51846e-05 0)
(3.60527e-05 7.38836e-05 0)
(1.02425e-05 5.11865e-05 0)
(-5.70302e-07 -5.7175e-05 0)
(-1.14463e-05 -5.69681e-05 0)
(-6.47769e-05 3.29203e-05 0)
(-0.000180658 0.00018468 0)
(-0.000374045 0.000376668 0)
(-0.00065446 0.000592331 0)
(-0.00102713 0.000819145 0)
(-0.00149379 0.00104774 0)
(-0.00205342 0.00127115 0)
(-0.00270281 0.00148428 0)
(-0.00343711 0.00168343 0)
(-0.00425021 0.00186598 0)
(-0.00513503 0.00203012 0)
(-0.00608386 0.00217466 0)
(-0.0070885 0.00229889 0)
(-0.00814047 0.00240246 0)
(-0.00923113 0.00248531 0)
(-0.0103518 0.00254762 0)
(-0.0114939 0.00258969 0)
(-0.0126488 0.002612 0)
(-0.0138082 0.00261512 0)
(-0.014964 0.00259968 0)
(-0.0161083 0.00256642 0)
(-0.0172336 0.00251608 0)
(-0.0183326 0.00244946 0)
(-0.0193984 0.00236741 0)
(-0.0204244 0.00227078 0)
(-0.0214045 0.00216044 0)
(-0.0223327 0.00203729 0)
(-0.0232037 0.00190223 0)
(-0.0240125 0.0017562 0)
(-0.0247544 0.00160012 0)
(-0.0254253 0.00143494 0)
(-0.0260213 0.00126161 0)
(-0.026539 0.00108111 0)
(-0.0269756 0.00089442 0)
(-0.0273286 0.000702534 0)
(-0.0275958 0.000506466 0)
(-0.0277758 0.000307242 0)
(-0.0278674 0.000105905 0)
(-0.0278698 -9.64867e-05 0)
(-0.027783 -0.000298857 0)
(-0.0276071 -0.000500117 0)
(-0.0273431 -0.000699159 0)
(-0.026992 -0.000894864 0)
(-0.0265556 -0.0010861 0)
(-0.0260363 -0.00127173 0)
(-0.0254367 -0.00145059 0)
(-0.02476 -0.00162155 0)
(-0.0240101 -0.00178344 0)
(-0.0231911 -0.00193511 0)
(-0.0223077 -0.00207544 0)
(-0.0213653 -0.00220328 0)
(-0.0203694 -0.00231756 0)
(-0.0193263 -0.00241719 0)
(-0.0182425 -0.00250115 0)
(-0.0171249 -0.00256844 0)
(-0.0159811 -0.00261815 0)
(-0.0148188 -0.0026494 0)
(-0.0136461 -0.00266143 0)
(-0.0124714 -0.00265354 0)
(-0.0113033 -0.00262516 0)
(-0.0101507 -0.00257585 0)
(-0.00902239 -0.00250531 0)
(-0.00792746 -0.00241343 0)
(-0.00687481 -0.00230033 0)
(-0.00587321 -0.00216636 0)
(-0.00493116 -0.00201221 0)
(-0.00405674 -0.00183898 0)
(-0.0032574 -0.00164823 0)
(-0.0025398 -0.00144219 0)
(-0.0019095 -0.00122387 0)
(-0.00137067 -0.000997348 0)
(-0.000925701 -0.000768032 0)
(-0.000574708 -0.00054312 0)
(-0.000315005 -0.000332093 0)
(-0.000140415 -0.000147394 0)
(-4.05629e-05 -5.21783e-06 0)
(1.55271e-07 7.35461e-05 0)
(2.1764e-06 6.23986e-05 0)
(-1.33131e-05 -5.17273e-05 0)
(-6.55685e-05 -1.1508e-05 0)
(-0.000177897 0.000143134 0)
(-0.000370626 0.000377718 0)
(-0.00065895 0.000664839 0)
(-0.00105246 0.000983076 0)
(-0.0015563 0.00131587 0)
(-0.00217197 0.00165057 0)
(-0.00289795 0.00197756 0)
(-0.00373039 0.00228968 0)
(-0.00466352 0.0025816 0)
(-0.00569015 0.00284946 0)
(-0.00680195 0.00309055 0)
(-0.00798978 0.00330302 0)
(-0.00924391 0.00348573 0)
(-0.0105542 0.00363805 0)
(-0.0119104 0.0037598 0)
(-0.0133021 0.00385113 0)
(-0.0147187 0.00391245 0)
(-0.0161501 0.00394437 0)
(-0.0175861 0.00394769 0)
(-0.0190169 0.00392331 0)
(-0.0204328 0.00387226 0)
(-0.0218246 0.00379564 0)
(-0.0231835 0.00369462 0)
(-0.024501 0.00357043 0)
(-0.025769 0.00342434 0)
(-0.02698 0.00325764 0)
(-0.0281268 0.00307167 0)
(-0.0292028 0.00286779 0)
(-0.0302017 0.00264739 0)
(-0.0311178 0.00241186 0)
(-0.0319461 0.00216262 0)
(-0.0326818 0.00190113 0)
(-0.0333208 0.00162884 0)
(-0.0338595 0.00134725 0)
(-0.0342949 0.00105784 0)
(-0.0346244 0.000762158 0)
(-0.0348461 0.000461749 0)
(-0.0349586 0.000158188 0)
(-0.0349611 -0.000146928 0)
(-0.0348534 -0.000451976 0)
(-0.0346357 -0.000755312 0)
(-0.0343092 -0.00105527 0)
(-0.0338753 -0.00135017 0)
(-0.0333362 -0.0016383 0)
(-0.0326947 -0.00191795 0)
(-0.0319541 -0.00218739 0)
(-0.0311185 -0.0024449 0)
(-0.0301924 -0.00268876 0)
(-0.0291811 -0.00291724 0)
(-0.0280903 -0.00312864 0)
(-0.0269266 -0.00332131 0)
(-0.0256968 -0.00349359 0)
(-0.0244084 -0.0036439 0)
(-0.0230696 -0.00377072 0)
(-0.0216889 -0.0038726 0)
(-0.0202753 -0.00394818 0)
(-0.0188382 -0.00399619 0)
(-0.0173877 -0.00401551 0)
(-0.0159338 -0.00400517 0)
(-0.014487 -0.00396435 0)
(-0.0130579 -0.00389244 0)
(-0.0116575 -0.00378907 0)
(-0.0102963 -0.00365416 0)
(-0.00898526 -0.00348793 0)
(-0.00773477 -0.00329103 0)
(-0.00655498 -0.00306454 0)
(-0.00545548 -0.00281017 0)
(-0.00444513 -0.00253032 0)
(-0.00353177 -0.00222827 0)
(-0.00272199 -0.00190846 0)
(-0.00202076 -0.00157672 0)
(-0.00143102 -0.00124069 0)
(-0.00095323 -0.0009103 0)
(-0.000584822 -0.000598387 0)
(-0.00031953 -0.000321442 0)
(-0.000146734 -0.000100497 0)
(-5.04034e-05 3.78668e-05 0)
(-9.67003e-06 6.05448e-05 0)
(-2.83153e-05 -2.97492e-05 0)
(-0.000128478 7.78968e-05 0)
(-0.000307929 0.000320257 0)
(-0.00058641 0.00065779 0)
(-0.000978481 0.00105833 0)
(-0.00149303 0.00149618 0)
(-0.00213452 0.00195107 0)
(-0.00290374 0.00240719 0)
(-0.00379844 0.00285232 0)
(-0.00481394 0.00327713 0)
(-0.00594355 0.00367458 0)
(-0.00717903 0.00403949 0)
(-0.00851091 0.0043681 0)
(-0.00992879 0.00465782 0)
(-0.0114216 0.00490695 0)
(-0.0129778 0.00511456 0)
(-0.0145856 0.00528027 0)
(-0.0162331 0.00540417 0)
(-0.0179082 0.00548674 0)
(-0.0195991 0.00552874 0)
(-0.0212942 0.00553118 0)
(-0.022982 0.00549527 0)
(-0.0246514 0.00542236 0)
(-0.0262916 0.00531395 0)
(-0.0278925 0.00517162 0)
(-0.0294441 0.00499704 0)
(-0.030937 0.00479195 0)
(-0.0323624 0.00455815 0)
(-0.033712 0.00429747 0)
(-0.034978 0.00401182 0)
(-0.036153 0.0037031 0)
(-0.0372306 0.00337327 0)
(-0.0382047 0.00302431 0)
(-0.0390697 0.00265825 0)
(-0.0398209 0.00227713 0)
(-0.0404541 0.00188302 0)
(-0.0409657 0.00147803 0)
(-0.0413527 0.0010643 0)
(-0.0416129 0.000644009 0)
(-0.0417447 0.000219349 0)
(-0.0417472 -0.00020744 0)
(-0.0416201 -0.00063409 0)
(-0.0413638 -0.0010583 0)
(-0.0409795 -0.00147776 0)
(-0.040469 -0.00189009 0)
(-0.0398348 -0.00229294 0)
(-0.0390803 -0.00268391 0)
(-0.0382093 -0.00306061 0)
(-0.0372265 -0.00342063 0)
(-0.0361374 -0.00376157 0)
(-0.0349481 -0.00408106 0)
(-0.0336652 -0.00437674 0)
(-0.0322963 -0.00464631 0)
(-0.0308495 -0.0048875 0)
(-0.0293336 -0.00509814 0)
(-0.0277579 -0.00527613 0)
(-0.0261324 -0.00541948 0)
(-0.0244676 -0.00552634 0)
(-0.0227744 -0.00559501 0)
(-0.0210643 -0.00562397 0)
(-0.0193491 -0.00561192 0)
(-0.0176408 -0.00555779 0)
(-0.0159517 -0.00546081 0)
(-0.0142942 -0.00532056 0)
(-0.0126807 -0.00513698 0)
(-0.0111236 -0.00491049 0)
(-0.00963479 -0.00464206 0)
(-0.00822588 -0.0043333 0)
(-0.0069078 -0.00398661 0)
(-0.00569064 -0.00360532 0)
(-0.00458337 -0.00319397 0)
(-0.00359355 -0.00275849 0)
(-0.00272701 -0.00230661 0)
(-0.00198744 -0.00184826 0)
(-0.00137591 -0.00139614 0)
(-0.000890438 -0.000966328 0)
(-0.000525277 -0.000579084 0)
(-0.000270337 -0.000259735 0)
(-0.000110022 -3.96313e-05 0)
(-2.38465e-05 4.30335e-05 0)
(-4.45549e-05 1.01587e-05 0)
(-0.000196237 0.000215042 0)
(-0.000447564 0.000569929 0)
(-0.00081729 0.00103165 0)
(-0.00131879 0.0015643 0)
(-0.0019597 0.0021386 0)
(-0.0027433 0.00273101 0)
(-0.00366929 0.00332281 0)
(-0.00473441 0.00389928 0)
(-0.00593295 0.00444901 0)
(-0.00725722 0.00496324 0)
(-0.00869792 0.00543537 0)
(-0.0102445 0.00586056 0)
(-0.0118853 0.00623541 0)
(-0.0136081 0.00655762 0)
(-0.0154001 0.00682586 0)
(-0.0172482 0.00703953 0)
(-0.0191389 0.00719864 0)
(-0.0210591 0.00730371 0)
(-0.0229954 0.00735563 0)
(-0.0249348 0.00735566 0)
(-0.0268645 0.00730529 0)
(-0.028772 0.00720626 0)
(-0.0306453 0.00706045 0)
(-0.0324728 0.00686993 0)
(-0.0342434 0.00663686 0)
(-0.0359465 0.00636349 0)
(-0.0375722 0.00605219 0)
(-0.0391109 0.00570536 0)
(-0.040554 0.00532549 0)
(-0.0418932 0.00491511 0)
(-0.0431211 0.0044768 0)
(-0.0442308 0.00401319 0)
(-0.0452162 0.00352694 0)
(-0.0460718 0.00302077 0)
(-0.0467928 0.00249743 0)
(-0.0473752 0.0019597 0)
(-0.0478158 0.00141044 0)
(-0.0481119 0.000852525 0)
(-0.0482617 0.000288868 0)
(-0.0482642 -0.000277561 0)
(-0.0481192 -0.000843758 0)
(-0.0478271 -0.00140668 0)
(-0.0473892 -0.00196324 0)
(-0.0468076 -0.00251034 0)
(-0.0460852 -0.00304483 0)
(-0.0452257 -0.00356356 0)
(-0.0442336 -0.00406337 0)
(-0.0431142 -0.00454108 0)
(-0.0418735 -0.00499354 0)
(-0.0405185 -0.00541763 0)
(-0.0390567 -0.00581024 0)
(-0.0374967 -0.00616836 0)
(-0.0358476 -0.00648902 0)
(-0.0341192 -0.00676938 0)
(-0.0323221 -0.0070067 0)
(-0.0304675 -0.0071984 0)
(-0.0285672 -0.00734208 0)
(-0.0266335 -0.00743555 0)
(-0.0246792 -0.00747686 0)
(-0.0227175 -0.00746437 0)
(-0.0207619 -0.00739675 0)
(-0.0188261 -0.00727306 0)
(-0.016924 -0.00709282 0)
(-0.0150695 -0.00685605 0)
(-0.0132762 -0.00656341 0)
(-0.0115574 -0.00621624 0)
(-0.00992615 -0.00581672 0)
(-0.00839448 -0.00536804 0)
(-0.00697368 -0.00487458 0)
(-0.00567381 -0.00434214 0)
(-0.00450348 -0.00377827 0)
(-0.00346945 -0.00319262 0)
(-0.00257636 -0.0025974 0)
(-0.00182622 -0.00200795 0)
(-0.00121798 -0.00144338 0)
(-0.000746933 -0.000927324 0)
(-0.000404064 -0.000488778 0)
(-0.000174761 -0.000162903 0)
(-3.93293e-05 8.39157e-06 0)
(-6.13488e-05 6.86242e-05 0)
(-0.000266188 0.000401894 0)
(-0.000591779 0.000895337 0)
(-0.00105575 0.00150335 0)
(-0.00166997 0.00218721 0)
(-0.00244045 0.00291476 0)
(-0.00336894 0.00365965 0)
(-0.00445373 0.00440062 0)
(-0.00569027 0.00512066 0)
(-0.00707166 0.00580637 0)
(-0.00858906 0.00644731 0)
(-0.0102321 0.00703552 0)
(-0.0119889 0.00756505 0)
(-0.013847 0.00803164 0)
(-0.0157929 0.00843239 0)
(-0.0178124 0.00876552 0)
(-0.0198914 0.00903017 0)
(-0.0220153 0.00922627 0)
(-0.0241694 0.00935434 0)
(-0.0263394 0.00941544 0)
(-0.0285108 0.00941103 0)
(-0.0306698 0.00934295 0)
(-0.0328025 0.0092133 0)
(-0.0348958 0.00902443 0)
(-0.0369369 0.00877887 0)
(-0.0389137 0.00847934 0)
(-0.0408144 0.00812867 0)
(-0.042628 0.00772982 0)
(-0.0443443 0.00728584 0)
(-0.0459535 0.00679986 0)
(-0.0474465 0.00627509 0)
(-0.0488152 0.00571481 0)
(-0.0500519 0.00512235 0)
(-0.0511499 0.00450111 0)
(-0.0521031 0.00385454 0)
(-0.0529063 0.00318614 0)
(-0.053555 0.00249948 0)
(-0.0540457 0.00179817 0)
(-0.0543754 0.00108588 0)
(-0.0545423 0.000366329 0)
(-0.0545451 -0.000356697 0)
(-0.0543835 -0.00107938 0)
(-0.0540582 -0.00179784 0)
(-0.0535705 -0.00250816 0)
(-0.0529228 -0.00320638 0)
(-0.0521182 -0.00388853 0)
(-0.0511609 -0.00455059 0)
(-0.0500558 -0.00518855 0)
(-0.0488087 -0.00579839 0)
(-0.0474264 -0.00637612 0)
(-0.0459165 -0.00691777 0)
(-0.0442873 -0.00741945 0)
(-0.0425483 -0.00787733 0)
(-0.0407093 -0.00828768 0)
(-0.0387814 -0.00864692 0)
(-0.0367761 -0.00895163 0)
(-0.0347056 -0.00919856 0)
(-0.0325831 -0.00938473 0)
(-0.0304219 -0.0095074 0)
(-0.0282361 -0.00956419 0)
(-0.0260402 -0.00955307 0)
(-0.023849 -0.00947243 0)
(-0.0216775 -0.00932117 0)
(-0.0195409 -0.00909876 0)
(-0.0174543 -0.00880534 0)
(-0.0154326 -0.00844178 0)
(-0.0134905 -0.00800987 0)
(-0.0116421 -0.00751242 0)
(-0.00990068 -0.00695343 0)
(-0.00827866 -0.00633836 0)
(-0.00678724 -0.00567434 0)
(-0.00543609 -0.00497052 0)
(-0.0042331 -0.00423843 0)
(-0.00318403 -0.00349249 0)
(-0.00229207 -0.0027505 0)
(-0.00155748 -0.0020343 0)
(-0.000976934 -0.00137048 0)
(-0.000542858 -0.000791038 0)
(-0.00024194 -0.000334079 0)
(-5.5428e-05 -4.40781e-05 0)
(-7.82548e-05 0.000145772 0)
(-0.000336593 0.000639168 0)
(-0.000737219 0.00129792 0)
(-0.00129664 0.00207494 0)
(-0.00202511 0.00292948 0)
(-0.00292678 0.00382713 0)
(-0.00400159 0.00473926 0)
(-0.00524617 0.0056424 0)
(-0.00665449 0.0065175 0)
(-0.00821826 0.00734936 0)
(-0.00992739 0.00812597 0)
(-0.0117702 0.00883804 0)
(-0.013734 0.00947858 0)
(-0.0158047 0.0100425 0)
(-0.0179679 0.0105262 0)
(-0.0202084 0.0109275 0)
(-0.0225108 0.0112453 0)
(-0.0248593 0.0114793 0)
(-0.0272384 0.0116303 0)
(-0.0296322 0.0116992 0)
(-0.0320255 0.0116879 0)
(-0.0344031 0.0115985 0)
(-0.0367502 0.0114336 0)
(-0.0390525 0.0111958 0)
(-0.0412963 0.0108884 0)
(-0.0434683 0.0105146 0)
(-0.0455559 0.0100778 0)
(-0.0475473 0.00958171 0)
(-0.0494311 0.00902998 0)
(-0.051197 0.0084265 0)
(-0.052835 0.00777519 0)
(-0.0543363 0.00708009 0)
(-0.0556926 0.00634531 0)
(-0.0568966 0.00557505 0)
(-0.0579418 0.00477355 0)
(-0.0588224 0.00394514 0)
(-0.0595337 0.00309423 0)
(-0.0600717 0.00222528 0)
(-0.0604333 0.00134282 0)
(-0.0606164 0.000451457 0)
(-0.0606197 -0.000444158 0)
(-0.060443 -0.0013393 0)
(-0.0600868 -0.00222918 0)
(-0.0595527 -0.00310898 0)
(-0.0588433 -0.00397381 0)
(-0.0579619 -0.00481876 0)
(-0.0569131 -0.00563891 0)
(-0.0557021 -0.0064293 0)
(-0.0543353 -0.00718501 0)
(-0.0528201 -0.00790112 0)
(-0.0511645 -0.00857277 0)
(-0.0493778 -0.00919518 0)
(-0.04747 -0.00976365 0)
(-0.0454519 -0.0102736 0)
(-0.0433354 -0.0107208 0)
(-0.0411329 -0.0111008 0)
(-0.0388578 -0.0114099 0)
(-0.0365241 -0.0116444 0)
(-0.0341463 -0.011801 0)
(-0.0317396 -0.0118768 0)
(-0.0293196 -0.0118693 0)
(-0.0269023 -0.0117768 0)
(-0.0245039 -0.0115978 0)
(-0.0221408 -0.0113319 0)
(-0.0198292 -0.0109793 0)
(-0.0175854 -0.0105411 0)
(-0.0154251 -0.0100195 0)
(-0.0133636 -0.00941801 0)
(-0.0114154 -0.00874148 0)
(-0.00959404 -0.00799643 0)
(-0.00791192 -0.0071913 0)
(-0.00637988 -0.00633681 0)
(-0.00500707 -0.0054463 0)
(-0.00380054 -0.00453624 0)
(-0.00276493 -0.00362668 0)
(-0.00190201 -0.00274188 0)
(-0.0012101 -0.0019109 0)
(-0.000683323 -0.00116819 0)
(-0.000309793 -0.00055403 0)
(-7.16924e-05 -0.000114562 0)
(-9.49976e-05 0.000241413 0)
(-0.00040636 0.000926748 0)
(-0.000881724 0.00177792 0)
(-0.00153659 0.00274704 0)
(-0.00237956 0.00379203 0)
(-0.00341281 0.00487677 0)
(-0.00463432 0.00597081 0)
(-0.00603889 0.00704882 0)
(-0.0076188 0.00809001 0)
(-0.00936424 0.00907756 0)
(-0.0112637 0.00999805 0)
(-0.0133043 0.010841 0)
(-0.0154719 0.0115983 0)
(-0.0177516 0.0122642 0)
(-0.0201275 0.0128344 0)
(-0.0225836 0.0133064 0)
(-0.0251032 0.0136787 0)
(-0.0276696 0.013951 0)
(-0.0302661 0.014124 0)
(-0.0328759 0.014199 0)
(-0.0354825 0.014178 0)
(-0.03807 0.0140634 0)
(-0.0406224 0.0138582 0)
(-0.0431245 0.0135657 0)
(-0.0455617 0.0131896 0)
(-0.0479198 0.0127338 0)
(-0.0501854 0.0122023 0)
(-0.0523457 0.0115995 0)
(-0.0543888 0.0109298 0)
(-0.0563033 0.0101978 0)
(-0.0580788 0.00940833 0)
(-0.0597058 0.00856617 0)
(-0.0611755 0.00767626 0)
(-0.06248 0.00674364 0)
(-0.0636123 0.00577344 0)
(-0.0645664 0.00477088 0)
(-0.065337 0.00374124 0)
(-0.06592 0.00268992 0)
(-0.0663121 0.00162237 0)
(-0.0665109 0.000544128 0)
(-0.0665153 -0.000539185 0)
(-0.0663247 -0.00162188 0)
(-0.0659399 -0.00269821 0)
(-0.0653625 -0.00376236 0)
(-0.0645953 -0.00480846 0)
(-0.0636419 -0.0058306 0)
(-0.062507 -0.00682286 0)
(-0.0611964 -0.0077793 0)
(-0.0597169 -0.008694 0)
(-0.0580761 -0.00956107 0)
(-0.056283 -0.0103747 0)
(-0.0543472 -0.0111291 0)
(-0.0522794 -0.0118187 0)
(-0.0500913 -0.0124381 0)
(-0.0477955 -0.0129819 0)
(-0.0454052 -0.0134454 0)
(-0.0429347 -0.0138236 0)
(-0.040399 -0.0141124 0)
(-0.0378135 -0.0143079 0)
(-0.0351945 -0.0144065 0)
(-0.0325586 -0.0144056 0)
(-0.0299229 -0.0143028 0)
(-0.0273047 -0.0140967 0)
(-0.0247215 -0.0137867 0)
(-0.0221906 -0.0133731 0)
(-0.0197295 -0.0128574 0)
(-0.017355 -0.0122421 0)
(-0.0150835 -0.0115313 0)
(-0.0129308 -0.0107309 0)
(-0.0109116 -0.00984829 0)
(-0.00903955 -0.00889325 0)
(-0.00732676 -0.00787796 0)
(-0.00578376 -0.00681747 0)
(-0.00441908 -0.00573012 0)
(-0.00323896 -0.00463798 0)
(-0.0022469 -0.00356741 0)
(-0.00144304 -0.00254953 0)
(-0.00082328 -0.0016207 0)
(-0.000377213 -0.000822793 0)
(-8.78419e-05 -0.000202927 0)
(-0.000111417 0.000355173 0)
(-0.000474847 0.001264 0)
(-0.00102399 0.00233476 0)
(-0.00177349 0.00351933 0)
(-0.00273034 0.00477475 0)
(-0.00389471 0.00606371 0)
(-0.00526254 0.00735433 0)
(-0.00682665 0.00861979 0)
(-0.00857752 0.00983781 0)
(-0.0105037 0.0109902 0)
(-0.0125921 0.0120623 0)
(-0.0148286 0.0130424 0)
(-0.0171976 0.0139217 0)
(-0.0196831 0.0146935 0)
(-0.0222681 0.0153531 0)
(-0.0249353 0.0158975 0)
(-0.0276672 0.0163251 0)
(-0.0304458 0.0166355 0)
(-0.0332536 0.0168293 0)
(-0.0360727 0.016908 0)
(-0.0388858 0.016874 0)
(-0.0416758 0.01673 0)
(-0.044426 0.0164795 0)
(-0.0471204 0.0161263 0)
(-0.0497433 0.0156747 0)
(-0.0522799 0.0151291 0)
(-0.0547159 0.0144944 0)
(-0.0570377 0.0137757 0)
(-0.0592329 0.0129781 0)
(-0.0612893 0.0121072 0)
(-0.0631961 0.0111683 0)
(-0.064943 0.0101674 0)
(-0.0665208 0.0091101 0)
(-0.0679211 0.00800244 0)
(-0.0691366 0.00685045 0)
(-0.0701608 0.00566028 0)
(-0.0709882 0.00443819 0)
(-0.0716144 0.00319053 0)
(-0.0720359 0.00192375 0)
(-0.0722503 0.000644375 0)
(-0.0722561 -0.000640954 0)
(-0.072053 -0.00192553 0)
(-0.0716417 -0.00320256 0)
(-0.0710239 -0.00446519 0)
(-0.0702024 -0.0057065 0)
(-0.0691811 -0.00691954 0)
(-0.0679651 -0.00809731 0)
(-0.0665604 -0.00923283 0)
(-0.0649741 -0.0103191 0)
(-0.0632144 -0.0113493 0)
(-0.0612906 -0.0123164 0)
(-0.0592129 -0.0132138 0)
(-0.0569928 -0.0140348 0)
(-0.0546424 -0.0147731 0)
(-0.052175 -0.0154226 0)
(-0.0496048 -0.0159773 0)
(-0.0469467 -0.0164319 0)
(-0.0442165 -0.0167812 0)
(-0.0414307 -0.0170208 0)
(-0.0386065 -0.0171466 0)
(-0.0357613 -0.0171554 0)
(-0.0329134 -0.0170446 0)
(-0.030081 -0.0168126 0)
(-0.0272826 -0.0164585 0)
(-0.0245368 -0.0159829 0)
(-0.021862 -0.0153874 0)
(-0.0192763 -0.0146751 0)
(-0.0167973 -0.0138506 0)
(-0.0144418 -0.0129205 0)
(-0.0122259 -0.0118934 0)
(-0.0101646 -0.0107801 0)
(-0.00827132 -0.00959426 0)
(-0.00655813 -0.00835247 0)
(-0.00503517 -0.00707474 0)
(-0.00371042 -0.00578493 0)
(-0.00258923 -0.00451119 0)
(-0.00167365 -0.00328635 0)
(-0.00096142 -0.00214826 0)
(-0.00044355 -0.00113989 0)
(-0.000103714 -0.000308851 0)
(-0.000127432 0.000486584 0)
(-0.00054172 0.00164997 0)
(-0.00116329 0.0029674 0)
(-0.00200612 0.00439081 0)
(-0.00307568 0.00587681 0)
(-0.00437015 0.00738726 0)
(-0.00588337 0.00888921 0)
(-0.00760614 0.0103546 0)
(-0.00952701 0.0117601 0)
(-0.0116328 0.0130862 0)
(-0.0139088 0.0143172 0)
(-0.0163394 0.0154405 0)
(-0.0189077 0.0164464 0)
(-0.0215964 0.0173276 0)
(-0.0243874 0.0180789 0)
(-0.0272622 0.018697 0)
(-0.0302022 0.0191801 0)
(-0.0331886 0.0195277 0)
(-0.0362026 0.0197406 0)
(-0.0392257 0.0198205 0)
(-0.0422395 0.0197699 0)
(-0.0452261 0.0195921 0)
(-0.048168 0.019291 0)
(-0.0510482 0.0188709 0)
(-0.0538505 0.0183369 0)
(-0.0565591 0.017694 0)
(-0.0591591 0.0169478 0)
(-0.0616365 0.0161041 0)
(-0.0639778 0.0151691 0)
(-0.0661706 0.0141489 0)
(-0.0682033 0.0130499 0)
(-0.0700653 0.0118789 0)
(-0.0717468 0.0106425 0)
(-0.0732391 0.00934768 0)
(-0.0745345 0.0080014 0)
(-0.0756261 0.00661082 0)
(-0.0765082 0.0051832 0)
(-0.0771762 0.00372592 0)
(-0.0776264 0.00224645 0)
(-0.0778562 0.000752382 0)
(-0.0778642 -0.000748583 0)
(-0.0776498 -0.00224866 0)
(-0.0772139 -0.00373997 0)
(-0.0765582 -0.00521457 0)
(-0.0756857 -0.00666443 0)
(-0.0746005 -0.00808148 0)
(-0.0733077 -0.00945763 0)
(-0.0718137 -0.0107848 0)
(-0.0701259 -0.0120548 0)
(-0.0682529 -0.0132598 0)
(-0.0662044 -0.0143917 0)
(-0.0639911 -0.0154428 0)
(-0.061625 -0.0164054 0)
(-0.0591188 -0.0172721 0)
(-0.0564865 -0.018036 0)
(-0.0537428 -0.0186901 0)
(-0.0509036 -0.0192282 0)
(-0.0479853 -0.0196446 0)
(-0.0450052 -0.0199338 0)
(-0.0419813 -0.0200915 0)
(-0.0389322 -0.0201137 0)
(-0.0358768 -0.0199976 0)
(-0.0328346 -0.0197412 0)
(-0.029825 -0.0193437 0)
(-0.0268676 -0.0188056 0)
(-0.0239819 -0.0181288 0)
(-0.0211873 -0.0173166 0)
(-0.0185024 -0.0163744 0)
(-0.0159455 -0.0153094 0)
(-0.0135338 -0.0141312 0)
(-0.0112838 -0.0128516 0)
(-0.00921035 -0.0114857 0)
(-0.0073272 -0.0100513 0)
(-0.0056462 -0.00857009 0)
(-0.00417714 -0.00706738 0)
(-0.00292733 -0.00557286 0)
(-0.00190078 -0.00412076 0)
(-0.00109706 -0.00275008 0)
(-0.000508482 -0.00150453 0)
(-0.000119229 -0.000431921 0)
(-0.000143011 0.000635145 0)
(-0.000606855 0.0020836 0)
(-0.00129934 0.00367451 0)
(-0.00223393 0.00536015 0)
(-0.00341471 0.00709695 0)
(-0.0048379 0.00884626 0)
(-0.00649526 0.0105744 0)
(-0.0083755 0.0122524 0)
(-0.0104652 0.0138558 0)
(-0.0127493 0.0153643 0)
(-0.0152116 0.0167613 0)
(-0.0178347 0.0180335 0)
(-0.0206005 0.0191703 0)
(-0.0234902 0.020164 0)
(-0.0264846 0.021009 0)
(-0.029564 0.0217016 0)
(-0.0327089 0.02224 0)
(-0.0358993 0.0226237 0)
(-0.0391156 0.0228535 0)
(-0.0423382 0.0229315 0)
(-0.0455481 0.0228605 0)
(-0.0487263 0.0226442 0)
(-0.0518547 0.022287 0)
(-0.0549156 0.021794 0)
(-0.0578919 0.0211706 0)
(-0.0607672 0.0204228 0)
(-0.0635261 0.0195568 0)
(-0.0661537 0.0185794 0)
(-0.0686363 0.0174974 0)
(-0.0709607 0.016318 0)
(-0.073115 0.0150486 0)
(-0.075088 0.0136966 0)
(-0.0768697 0.0122698 0)
(-0.0784508 0.0107762 0)
(-0.0798234 0.00922365 0)
(-0.0809803 0.00762041 0)
(-0.0819156 0.00597477 0)
(-0.0826243 0.00429517 0)
(-0.0831027 0.00259018 0)
(-0.0833481 0.000868475 0)
(-0.0833589 -0.000861134 0)
(-0.0831346 -0.00258974 0)
(-0.082676 -0.00430833 0)
(-0.0819849 -0.00600781 0)
(-0.0810643 -0.00767901 0)
(-0.0799185 -0.0093127 0)
(-0.0785528 -0.0108996 0)
(-0.0769738 -0.0124305 0)
(-0.0751891 -0.0138962 0)
(-0.0732078 -0.0152874 0)
(-0.0710398 -0.0165951 0)
(-0.0686963 -0.0178104 0)
(-0.0661897 -0.0189246 0)
(-0.0635333 -0.0199293 0)
(-0.0607416 -0.0208163 0)
(-0.05783 -0.021578 0)
(-0.0548149 -0.0222072 0)
(-0.0517136 -0.0226971 0)
(-0.0485441 -0.0230419 0)
(-0.0453252 -0.0232364 0)
(-0.0420763 -0.0232761 0)
(-0.0388173 -0.0231578 0)
(-0.0355686 -0.0228792 0)
(-0.0323506 -0.0224394 0)
(-0.0291841 -0.0218388 0)
(-0.0260896 -0.0210795 0)
(-0.0230876 -0.0201652 0)
(-0.0201981 -0.0191017 0)
(-0.0174406 -0.0178969 0)
(-0.0148338 -0.0165612 0)
(-0.0123955 -0.0151076 0)
(-0.0101423 -0.013552 0)
(-0.00808953 -0.0119139 0)
(-0.00625089 -0.0102159 0)
(-0.00463812 -0.00848482 0)
(-0.0032605 -0.00675168 0)
(-0.00212399 -0.00505183 0)
(-0.00122994 -0.00342513 0)
(-0.000571905 -0.00191582 0)
(-0.000134362 -0.000571689 0)
(-0.000158162 0.000800356 0)
(-0.000670266 0.00256375 0)
(-0.00143212 0.00445466 0)
(-0.00245682 0.0064258 0)
(-0.00374718 0.00843367 0)
(-0.00529754 0.0104393 0)
(-0.0070976 0.0124085 0)
(-0.00913398 0.0143117 0)
(-0.0113912 0.0161237 0)
(-0.0138525 0.0178233 0)
(-0.0164996 0.0193934 0)
(-0.0193138 0.0208198 0)
(-0.0222754 0.0220916 0)
(-0.0253643 0.0232006 0)
(-0.02856 0.0241408 0)
(-0.0318417 0.0249085 0)
(-0.0351887 0.0255016 0)
(-0.0385801 0.0259199 0)
(-0.0419953 0.0261643 0)
(-0.0454139 0.0262371 0)
(-0.0488159 0.0261416 0)
(-0.0521818 0.0258819 0)
(-0.0554925 0.0254631 0)
(-0.0587297 0.0248907 0)
(-0.0618756 0.024171 0)
(-0.0649132 0.0233107 0)
(-0.0678266 0.0223169 0)
(-0.0706003 0.021197 0)
(-0.07322 0.0199589 0)
(-0.0756722 0.0186106 0)
(-0.0779444 0.0171605 0)
(-0.0800251 0.0156171 0)
(-0.0819039 0.0139891 0)
(-0.0835713 0.0122854 0)
(-0.0850189 0.0105151 0)
(-0.0862394 0.00868739 0)
(-0.0872266 0.00681175 0)
(-0.0879754 0.00489768 0)
(-0.0884818 0.00295487 0)
(-0.0887431 0.000993121 0)
(-0.0887575 -0.000977606 0)
(-0.0885247 -0.00294724 0)
(-0.0880452 -0.0049056 0)
(-0.0873209 -0.00684241 0)
(-0.086355 -0.00874729 0)
(-0.0851517 -0.0106098 0)
(-0.0837167 -0.0124196 0)