/*--------------------------------*- C++ -*----------------------------------*\
| =========                 |                                                 |
| \\      /  F ield         | OpenFOAM: The Open Source CFD Toolbox           |
|  \\    /   O peration     | Version:  4.1                                   |
|   \\  /    A nd           | Web:      www.OpenFOAM.org                      |
|    \\/     M anipulation  |                                                 |
\*---------------------------------------------------------------------------*/
FoamFile
{
    version     2.0;
    format      ascii;
    class       volVectorField;
    location    "0.045";
    object      U;
}
// * * * * * * * * * * * * * * * * * * * * * * * * * * * * * * * * * * * * * //

dimensions      [0 1 -1 0 0 0 0];

internalField   nonuniform List<vector> 
6400
(
(6.75526e-06 -6.71973e-06 0)
(2.51368e-05 -9.33661e-06 0)
(3.94543e-05 -5.67967e-06 0)
(4.44391e-05 2.84768e-06 0)
(3.65525e-05 1.44726e-05 0)
(1.37732e-05 2.7835e-05 0)
(-2.48372e-05 4.19563e-05 0)
(-7.94384e-05 5.6149e-05 0)
(-0.000149645 6.99359e-05 0)
(-0.000234696 8.29886e-05 0)
(-0.000333574 9.50857e-05 0)
(-0.000445092 0.000106082 0)
(-0.000567954 0.000115885 0)
(-0.000700805 0.000124445 0)
(-0.000842255 0.000131738 0)
(-0.00099091 0.000137762 0)
(-0.00114539 0.00014253 0)
(-0.00130433 0.000146068 0)
(-0.0014664 0.000148408 0)
(-0.00163033 0.000149589 0)
(-0.00179486 0.000149655 0)
(-0.00195882 0.000148651 0)
(-0.00212105 0.000146628 0)
(-0.00228049 0.000143636 0)
(-0.0024361 0.000139725 0)
(-0.00258691 0.000134949 0)
(-0.002732 0.000129359 0)
(-0.00287052 0.000123009 0)
(-0.00300168 0.00011595 0)
(-0.00312472 0.000108237 0)
(-0.00323896 9.992e-05 0)
(-0.00334379 9.10532e-05 0)
(-0.00343861 8.16887e-05 0)
(-0.00352294 7.18792e-05 0)
(-0.0035963 6.16774e-05 0)
(-0.0036583 5.11364e-05 0)
(-0.0037086 4.03097e-05 0)
(-0.00374692 2.92515e-05 0)
(-0.00377304 1.80163e-05 0)
(-0.0037868 6.65954e-06 0)
(-0.00378809 -4.76243e-06 0)
(-0.00377687 -1.61924e-05 0)
(-0.00375317 -2.75722e-05 0)
(-0.00371708 -3.88425e-05 0)
(-0.00366873 -4.9943e-05 0)
(-0.00360836 -6.08122e-05 0)
(-0.00353625 -7.13878e-05 0)
(-0.00345275 -8.16063e-05 0)
(-0.00335828 -9.14036e-05 0)
(-0.00325334 -0.000100715 0)
(-0.00313848 -0.000109475 0)
(-0.00301435 -0.000117618 0)
(-0.00288164 -0.000125078 0)
(-0.00274114 -0.000131791 0)
(-0.00259369 -0.000137691 0)
(-0.00244021 -0.000142716 0)
(-0.00228169 -0.000146804 0)
(-0.00211917 -0.000149895 0)
(-0.00195377 -0.000151932 0)
(-0.00178667 -0.000152861 0)
(-0.0016191 -0.000152633 0)
(-0.00145234 -0.000151204 0)
(-0.00128772 -0.000148535 0)
(-0.00112661 -0.000144594 0)
(-0.000970417 -0.000139361 0)
(-0.000820555 -0.000132824 0)
(-0.000678455 -0.000124987 0)
(-0.000545537 -0.000115871 0)
(-0.000423193 -0.000105519 0)
(-0.000312762 -9.40084e-05 0)
(-0.000215496 -8.14534e-05 0)
(-0.000132508 -6.80254e-05 0)
(-6.47199e-05 -5.39712e-05 0)
(-1.27682e-05 -3.96428e-05 0)
(2.31097e-05 -2.55381e-05 0)
(4.32405e-05 -1.2359e-05 0)
(4.87387e-05 -1.08758e-06 0)
(4.1796e-05 6.93306e-06 0)
(2.60837e-05 9.99127e-06 0)
(6.91924e-06 6.85803e-06 0)
(9.498e-06 -2.50735e-05 0)
(3.60165e-05 -3.55428e-05 0)
(4.90667e-05 -1.75795e-05 0)
(3.64752e-05 1.95605e-05 0)
(-1.01741e-05 6.8681e-05 0)
(-9.5881e-05 0.000124495 0)
(-0.000223134 0.000183195 0)
(-0.000392533 0.000242075 0)
(-0.000603291 0.000299235 0)
(-0.000853615 0.000353352 0)
(-0.001141 0.000403523 0)
(-0.00146243 0.000449148 0)
(-0.00181456 0.000489845 0)
(-0.00219382 0.000525392 0)
(-0.00259652 0.000555686 0)
(-0.00301891 0.000580711 0)
(-0.00345725 0.000600512 0)
(-0.00390781 0.000615185 0)
(-0.00436696 0.000624862 0)
(-0.00483113 0.000629698 0)
(-0.00529689 0.00062987 0)
(-0.00576092 0.000625569 0)
(-0.00622003 0.000616997 0)
(-0.00667119 0.000604361 0)
(-0.0071115 0.000587875 0)
(-0.00753823 0.000567756 0)
(-0.00794879 0.000544222 0)
(-0.00834076 0.000517494 0)
(-0.00871188 0.000487792 0)
(-0.00906004 0.000455336 0)
(-0.00938329 0.000420347 0)
(-0.00967987 0.000383046 0)
(-0.00994814 0.000343653 0)
(-0.0101867 0.000302391 0)
(-0.0103941 0.000259481 0)
(-0.0105694 0.000215147 0)
(-0.0107116 0.000169614 0)
(-0.0108198 0.00012311 0)
(-0.0108934 7.58644e-05 0)
(-0.0109321 2.81114e-05 0)
(-0.0109354 -1.99125e-05 0)
(-0.0109034 -6.79667e-05 0)
(-0.010836 -0.000115806 0)
(-0.0107336 -0.000163182 0)
(-0.0105965 -0.000209841 0)
(-0.0104254 -0.000255525 0)
(-0.0102212 -0.000299972 0)
(-0.00998475 -0.000342917 0)
(-0.00971737 -0.00038409 0)
(-0.00942042 -0.00042322 0)
(-0.00909552 -0.000460035 0)
(-0.00874446 -0.000494258 0)
(-0.00836923 -0.000525618 0)
(-0.00797204 -0.000553842 0)
(-0.00755528 -0.00057866 0)
(-0.00712153 -0.00059981 0)
(-0.00667356 -0.000617034 0)
(-0.0062143 -0.000630086 0)
(-0.0057469 -0.000638728 0)
(-0.00527462 -0.000642741 0)
(-0.00480089 -0.000641919 0)
(-0.00432928 -0.000636081 0)
(-0.00386346 -0.000625072 0)
(-0.00340721 -0.000608766 0)
(-0.00296435 -0.000587077 0)
(-0.00253877 -0.000559968 0)
(-0.00213431 -0.000527458 0)
(-0.00175481 -0.000489643 0)
(-0.00140396 -0.000446714 0)
(-0.00108529 -0.000398987 0)
(-0.000802013 -0.000346943 0)
(-0.000556974 -0.000291285 0)
(-0.00035243 -0.000233019 0)
(-0.000189864 -0.000173561 0)
(-6.96972e-05 -0.000114892 0)
(9.07504e-06 -5.97739e-05 0)
(4.93637e-05 -1.20247e-05 0)
(5.65685e-05 2.31355e-05 0)
(3.94188e-05 3.8721e-05 0)
(1.02331e-05 2.59588e-05 0)
(6.03655e-06 -3.9554e-05 0)
(1.8818e-05 -4.86442e-05 0)
(6.51792e-06 -4.79206e-06 0)
(-4.65266e-05 7.46687e-05 0)
(-0.000151562 0.00017658 0)
(-0.000315488 0.000291175 0)
(-0.000541885 0.000411293 0)
(-0.000831729 0.000531735 0)
(-0.00118401 0.000648769 0)
(-0.00159624 0.000759742 0)
(-0.00206482 0.000862798 0)
(-0.00258533 0.000956671 0)
(-0.00315283 0.00104053 0)
(-0.00376196 0.00111388 0)
(-0.00440713 0.00117645 0)
(-0.00508263 0.00122817 0)
(-0.0057827 0.0012691 0)
(-0.0065016 0.00129939 0)
(-0.00723367 0.00131929 0)
(-0.00797338 0.00132911 0)
(-0.00871535 0.00132919 0)
(-0.00945436 0.0013199 0)
(-0.0101854 0.00130167 0)
(-0.0109037 0.00127491 0)
(-0.0116046 0.00124006 0)
(-0.0122839 0.00119757 0)
(-0.0129374 0.0011479 0)
(-0.0135613 0.00109149 0)
(-0.014152 0.00102881 0)
(-0.0147061 0.000960328 0)
(-0.0152205 0.000886502 0)
(-0.0156924 0.000807798 0)
(-0.0161193 0.000724681 0)
(-0.0164988 0.000637621 0)
(-0.0168288 0.000547085 0)
(-0.0171076 0.000453548 0)
(-0.0173335 0.000357487 0)
(-0.0175055 0.000259383 0)
(-0.0176224 0.000159723 0)
(-0.0176836 5.90023e-05 0)
(-0.0176886 -4.22794e-05 0)
(-0.0176372 -0.000143613 0)
(-0.0175296 -0.00024448 0)
(-0.0173663 -0.000344356 0)
(-0.0171478 -0.000442705 0)
(-0.0168753 -0.000538984 0)
(-0.0165501 -0.000632643 0)
(-0.0161737 -0.000723122 0)
(-0.0157481 -0.000809856 0)
(-0.0152756 -0.000892276 0)
(-0.0147586 -0.00096981 0)
(-0.0142001 -0.00104188 0)
(-0.0136033 -0.00110793 0)
(-0.0129716 -0.00116737 0)
(-0.0123088 -0.00121966 0)
(-0.0116189 -0.00126425 0)
(-0.0109065 -0.0013006 0)
(-0.0101761 -0.0013282 0)
(-0.00943264 -0.00134658 0)
(-0.00868127 -0.00135528 0)
(-0.00792736 -0.00135389 0)
(-0.00717649 -0.00134205 0)
(-0.0064344 -0.00131945 0)
(-0.00570694 -0.00128586 0)
(-0.00500005 -0.00124112 0)
(-0.0043197 -0.00118519 0)
(-0.00367182 -0.00111814 0)
(-0.00306223 -0.0010402 0)
(-0.00249652 -0.00095182 0)
(-0.00197998 -0.000853686 0)
(-0.00151741 -0.000746828 0)
(-0.00111294 -0.000632715 0)
(-0.00076981 -0.000513399 0)
(-0.000490084 -0.000391719 0)
(-0.000274242 -0.000271564 0)
(-0.000120736 -0.000158237 0)
(-2.53929e-05 -5.8924e-05 0)
(1.92485e-05 1.67182e-05 0)
(2.48868e-05 5.58561e-05 0)
(7.44771e-06 4.18329e-05 0)
(-2.2248e-06 -4.50223e-05 0)
(-1.7266e-05 -3.67349e-05 0)
(-7.10998e-05 4.7998e-05 0)
(-0.000180754 0.000184773 0)
(-0.00035873 0.000354783 0)
(-0.000612793 0.000543772 0)
(-0.000947007 0.000741049 0)
(-0.00136244 0.000938678 0)
(-0.00185782 0.00113082 0)
(-0.00243006 0.00131324 0)
(-0.00307467 0.00148291 0)
(-0.00378614 0.00163769 0)
(-0.00455819 0.00177617 0)
(-0.00538401 0.00189742 0)
(-0.00625645 0.00200095 0)
(-0.00716812 0.00208656 0)
(-0.00811155 0.00215427 0)
(-0.00907929 0.00220431 0)
(-0.0100639 0.00223702 0)
(-0.0110582 0.00225288 0)
(-0.012055 0.00225242 0)
(-0.0130474 0.00223626 0)
(-0.0140288 0.00220505 0)
(-0.0149929 0.00215948 0)
(-0.0159336 0.00210028 0)
(-0.016845 0.00202818 0)
(-0.0177218 0.00194395 0)
(-0.0185588 0.00184834 0)
(-0.0193511 0.00174212 0)
(-0.0200943 0.00162608 0)
(-0.0207842 0.00150099 0)
(-0.0214171 0.00136765 0)
(-0.0219895 0.00122684 0)
(-0.0224983 0.00107934 0)
(-0.0229406 0.00092597 0)
(-0.0233143 0.00076752 0)
(-0.023617 0.000604801 0)
(-0.0238473 0.000438634 0)
(-0.0240038 0.000269846 0)
(-0.0240855 9.92762e-05 0)
(-0.0240918 -7.2225e-05 0)
(-0.0240226 -0.000243794 0)
(-0.023878 -0.000414552 0)
(-0.0236586 -0.000583609 0)
(-0.0233654 -0.000750059 0)
(-0.0229997 -0.000912983 0)
(-0.0225633 -0.00107145 0)
(-0.0220585 -0.00122452 0)
(-0.0214877 -0.00137123 0)
(-0.0208541 -0.00151063 0)
(-0.0201609 -0.00164176 0)
(-0.0194121 -0.00176366 0)
(-0.018612 -0.00187536 0)
(-0.0177651 -0.00197593 0)
(-0.0168765 -0.00206442 0)
(-0.0159517 -0.00213993 0)
(-0.0149964 -0.00220158 0)
(-0.0140169 -0.00224853 0)
(-0.0130196 -0.00227998 0)
(-0.0120115 -0.0022952 0)
(-0.0109995 -0.00229353 0)
(-0.00999099 -0.00227438 0)
(-0.00899356 -0.00223728 0)
(-0.00801485 -0.00218188 0)
(-0.00706262 -0.00210796 0)
(-0.00614465 -0.0020155 0)
(-0.00526861 -0.00190468 0)
(-0.00444201 -0.00177596 0)
(-0.00367203 -0.00163013 0)
(-0.0029654 -0.00146839 0)
(-0.0023282 -0.00129251 0)
(-0.00176562 -0.00110492 0)
(-0.00128171 -0.000908978 0)
(-0.000879027 -0.000709209 0)
(-0.000558206 -0.000511695 0)
(-0.000317479 -0.00032454 0)
(-0.00015206 -0.000158489 0)
(-5.34858e-05 -2.76713e-05 0)
(-8.66525e-06 4.94888e-05 0)
(-1.66581e-07 4.93439e-05 0)
(-1.3575e-05 -3.80183e-05 0)
(-6.53156e-05 8.497e-06 0)
(-0.000171253 0.000151986 0)
(-0.000348541 0.000362403 0)
(-0.000609826 0.000616035 0)
(-0.000962883 0.000894481 0)
(-0.00141166 0.00118363 0)
(-0.00195697 0.00147275 0)
(-0.00259709 0.0017538 0)
(-0.0033283 0.00202081 0)
(-0.00414532 0.00226939 0)
(-0.00504165 0.00249643 0)
(-0.00600991 0.00269975 0)
(-0.00704204 0.00287795 0)
(-0.00812955 0.00303017 0)
(-0.00926364 0.00315603 0)
(-0.0104354 0.0032555 0)
(-0.0116358 0.00332882 0)
(-0.012856 0.00337644 0)
(-0.0140872 0.003399 0)
(-0.0153207 0.00339726 0)
(-0.0165482 0.00337208 0)
(-0.0177617 0.0033244 0)
(-0.0189534 0.00325523 0)
(-0.0201158 0.00316563 0)
(-0.0212418 0.00305668 0)
(-0.0223248 0.0029295 0)
(-0.0233585 0.00278523 0)
(-0.0243369 0.00262501 0)
(-0.0252546 0.00245001 0)
(-0.0261064 0.00226139 0)
(-0.0268877 0.00206035 0)
(-0.0275941 0.00184805 0)
(-0.028222 0.00162571 0)
(-0.0287679 0.00139451 0)
(-0.0292289 0.00115568 0)
(-0.0296024 0.000910428 0)
(-0.0298863 0.000659998 0)
(-0.0300791 0.000405639 0)
(-0.0301796 0.000148618 0)
(-0.0301871 -0.00010978 0)
(-0.0301013 -0.000368254 0)
(-0.0299226 -0.000625479 0)
(-0.0296515 -0.000880113 0)
(-0.0292894 -0.00113079 0)
(-0.0288379 -0.00137613 0)
(-0.0282992 -0.00161474 0)
(-0.0276759 -0.00184519 0)
(-0.0269714 -0.00206607 0)
(-0.0261894 -0.00227593 0)
(-0.0253339 -0.00247334 0)
(-0.0244097 -0.00265686 0)
(-0.0234222 -0.00282506 0)
(-0.0223768 -0.00297654 0)
(-0.02128 -0.00310991 0)
(-0.0201382 -0.00322383 0)
(-0.0189586 -0.003317 0)
(-0.0177488 -0.00338819 0)
(-0.0165167 -0.00343623 0)
(-0.0152706 -0.00346006 0)
(-0.014019 -0.00345872 0)
(-0.012771 -0.00343139 0)
(-0.0115356 -0.00337741 0)
(-0.0103221 -0.00329631 0)
(-0.00913975 -0.00318784 0)
(-0.00799798 -0.00305202 0)
(-0.00690594 -0.00288921 0)
(-0.00587259 -0.00270017 0)
(-0.00490645 -0.00248613 0)
(-0.0040155 -0.00224896 0)
(-0.0032069 -0.00199127 0)
(-0.0024868 -0.00171666 0)
(-0.00185998 -0.00142994 0)
(-0.00132956 -0.0011375 0)
(-0.000896533 -0.000847744 0)
(-0.000559299 -0.000571641 0)
(-0.000313066 -0.000323411 0)
(-0.000149235 -0.00012135 0)
(-5.4426e-05 1.1214e-05 0)
(-1.09334e-05 4.4984e-05 0)
(-2.67498e-05 -1.64995e-05 0)
(-0.00012045 9.22232e-05 0)
(-0.000285039 0.000314469 0)
(-0.000537117 0.000615976 0)
(-0.000888738 0.000969023 0)
(-0.00134703 0.0013516 0)
(-0.00191533 0.00174645 0)
(-0.0025938 0.0021402 0)
(-0.00338007 0.00252258 0)
(-0.00426967 0.00288584 0)
(-0.00525649 0.00322419 0)
(-0.00633312 0.00353341 0)
(-0.00749117 0.00381049 0)
(-0.00872148 0.00405342 0)
(-0.0100144 0.00426096 0)
(-0.0113598 0.00443247 0)
(-0.0127477 0.00456782 0)
(-0.0141675 0.00466724 0)
(-0.0156092 0.00473129 0)
(-0.0170626 0.00476075 0)
(-0.0185178 0.00475662 0)
(-0.0199651 0.00472004 0)
(-0.0213951 0.00465226 0)
(-0.0227988 0.00455465 0)
(-0.0241676 0.00442864 0)
(-0.0254933 0.0042757 0)
(-0.026768 0.00409738 0)
(-0.0279843 0.00389524 0)
(-0.0291355 0.00367087 0)
(-0.030215 0.00342588 0)
(-0.0312169 0.00316189 0)
(-0.0321357 0.00288055 0)
(-0.0329664 0.00258352 0)
(-0.0337047 0.00227245 0)
(-0.0343464 0.00194903 0)
(-0.0348882 0.00161495 0)
(-0.0353272 0.00127193 0)
(-0.0356608 0.000921686 0)
(-0.0358873 0.000565982 0)
(-0.0360052 0.000206584 0)
(-0.0360138 -0.000154708 0)
(-0.0359127 -0.000516074 0)
(-0.0357024 -0.000875662 0)
(-0.0353836 -0.0012316 0)
(-0.0349577 -0.00158198 0)
(-0.0344268 -0.00192487 0)
(-0.0337934 -0.00225833 0)
(-0.0330607 -0.00258039 0)
(-0.0322324 -0.00288906 0)
(-0.0313129 -0.00318235 0)
(-0.0303071 -0.00345826 0)
(-0.0292205 -0.0037148 0)
(-0.0280592 -0.00395 0)
(-0.0268298 -0.00416192 0)
(-0.0255396 -0.00434865 0)
(-0.0241963 -0.00450834 0)
(-0.0228081 -0.00463921 0)
(-0.0213839 -0.00473959 0)
(-0.0199328 -0.00480789 0)
(-0.0184644 -0.00484268 0)
(-0.0169888 -0.00484268 0)
(-0.0155161 -0.0048068 0)
(-0.014057 -0.00473419 0)
(-0.0126219 -0.00462427 0)
(-0.0112218 -0.00447676 0)
(-0.00986726 -0.00429179 0)
(-0.0085688 -0.00406993 0)
(-0.00733663 -0.00381229 0)
(-0.0061805 -0.00352067 0)
(-0.00510947 -0.00319767 0)
(-0.00413172 -0.00284688 0)
(-0.00325428 -0.00247315 0)
(-0.00248274 -0.00208286 0)
(-0.00182089 -0.00168433 0)
(-0.00127033 -0.00128829 0)
(-0.000829994 -0.000908472 0)
(-0.000495611 -0.000562315 0)
(-0.000259096 -0.000271787 0)
(-0.000107523 -6.42733e-05 0)
(-2.359e-05 2.6647e-05 0)
(-4.08843e-05 2.06175e-05 0)
(-0.000179339 0.000217438 0)
(-0.000406289 0.000539942 0)
(-0.000737459 0.000950905 0)
(-0.00118386 0.00141949 0)
(-0.0017515 0.00192069 0)
(-0.0024427 0.00243448 0)
(-0.00325667 0.00294507 0)
(-0.00419011 0.00344009 0)
(-0.00523769 0.00391004 0)
(-0.0063924 0.00434771 0)
(-0.0076459 0.00474772 0)
(-0.00898881 0.00510621 0)
(-0.010411 0.0054205 0)
(-0.0119016 0.00568891 0)
(-0.0134497 0.0059105 0)
(-0.0150437 0.006085 0)
(-0.0166723 0.00621262 0)
(-0.0183241 0.00629399 0)
(-0.0199877 0.00633007 0)
(-0.021652 0.00632208 0)
(-0.0233061 0.00627145 0)
(-0.0249397 0.0061798 0)
(-0.0265425 0.00604885 0)
(-0.0281048 0.00588046 0)
(-0.0296174 0.00567656 0)
(-0.0310714 0.00543913 0)
(-0.0324585 0.00517023 0)
(-0.033771 0.00487194 0)
(-0.0350015 0.00454637 0)
(-0.0361434 0.00419568 0)
(-0.0371905 0.00382202 0)
(-0.0381371 0.00342759 0)
(-0.0389782 0.00301458 0)
(-0.0397093 0.00258523 0)
(-0.0403265 0.00214178 0)
(-0.0408264 0.00168649 0)
(-0.0412064 0.00122168 0)
(-0.0414643 0.000749645 0)
(-0.0415986 0.000272752 0)
(-0.0416083 -0.00020662 0)
(-0.0414932 -0.000686054 0)
(-0.0412536 -0.0011631 0)
(-0.0408905 -0.00163527 0)
(-0.0404054 -0.00210005 0)
(-0.0398008 -0.00255489 0)
(-0.0390794 -0.00299721 0)
(-0.0382449 -0.00342441 0)
(-0.0373015 -0.00383388 0)
(-0.0362541 -0.00422297 0)
(-0.0351082 -0.00458908 0)
(-0.0338702 -0.00492959 0)
(-0.0325468 -0.0052419 0)
(-0.0311456 -0.00552346 0)
(-0.0296747 -0.0057718 0)
(-0.0281428 -0.00598448 0)
(-0.0265593 -0.00615922 0)
(-0.0249339 -0.00629381 0)
(-0.023277 -0.00638622 0)
(-0.0215994 -0.00643462 0)
(-0.0199123 -0.00643737 0)
(-0.0182272 -0.00639311 0)
(-0.0165558 -0.00630077 0)
(-0.01491 -0.00615968 0)
(-0.0133018 -0.00596956 0)
(-0.0117431 -0.00573065 0)
(-0.0102456 -0.00544379 0)
(-0.00882074 -0.00511051 0)
(-0.00747923 -0.0047332 0)
(-0.00623122 -0.00431528 0)
(-0.00508588 -0.00386139 0)
(-0.00405114 -0.00337769 0)
(-0.00313348 -0.00287214 0)
(-0.00233752 -0.00235499 0)
(-0.0016657 -0.00183918 0)
(-0.00111784 -0.00134103 0)
(-0.000690592 -0.00088083 0)
(-0.000376851 -0.000483657 0)
(-0.000164597 -0.000180103 0)
(-3.72631e-05 -6.81118e-06 0)
(-5.54125e-05 7.37728e-05 0)
(-0.000239783 0.000385606 0)
(-0.00053085 0.000830851 0)
(-0.000943365 0.00137034 0)
(-0.00148704 0.00197094 0)
(-0.0021665 0.00260521 0)
(-0.00298269 0.00325083 0)
(-0.00393361 0.00388984 0)
(-0.00501487 0.00450798 0)
(-0.00622006 0.00509408 0)
(-0.00754119 0.00563956 0)
(-0.00896894 0.00613791 0)
(-0.0104929 0.00658438 0)
(-0.0121021 0.00697562 0)
(-0.0137845 0.00730946 0)
(-0.0155282 0.00758466 0)
(-0.0173207 0.00780078 0)
(-0.0191494 0.00795799 0)
(-0.0210019 0.00805699 0)
(-0.0228659 0.00809892 0)
(-0.0247291 0.00808522 0)
(-0.0265796 0.00801766 0)
(-0.028406 0.00789819 0)
(-0.030197 0.00772896 0)
(-0.0319421 0.00751228 0)
(-0.0336309 0.00725055 0)
(-0.0352539 0.00694627 0)
(-0.0368017 0.00660201 0)
(-0.038266 0.00622041 0)
(-0.0396385 0.00580414 0)
(-0.0409119 0.00535591 0)
(-0.0420794 0.00487847 0)
(-0.0431348 0.00437461 0)
(-0.0440724 0.00384712 0)
(-0.0448873 0.00329884 0)
(-0.0455752 0.00273262 0)
(-0.0461324 0.00215137 0)
(-0.046556 0.001558 0)
(-0.0468435 0.000955472 0)
(-0.0469932 0.000346785 0)
(-0.0470042 -0.000265026 0)
(-0.0468762 -0.000876883 0)
(-0.0466095 -0.00148566 0)
(-0.0462052 -0.00208821 0)
(-0.045665 -0.00268132 0)
(-0.0449915 -0.00326174 0)
(-0.044188 -0.00382621 0)
(-0.0432583 -0.00437142 0)
(-0.0422072 -0.00489406 0)
(-0.0410401 -0.00539079 0)
(-0.039763 -0.0058583 0)
(-0.0383829 -0.00629326 0)
(-0.0369074 -0.00669243 0)
(-0.0353447 -0.00705257 0)
(-0.0337037 -0.00737056 0)
(-0.0319941 -0.00764337 0)
(-0.0302261 -0.0078681 0)
(-0.0284105 -0.00804202 0)
(-0.0265587 -0.0081626 0)
(-0.0246825 -0.00822755 0)
(-0.0227942 -0.00823488 0)
(-0.0209063 -0.00818292 0)
(-0.0190318 -0.00807041 0)
(-0.0171837 -0.00789655 0)
(-0.0153751 -0.00766108 0)
(-0.0136189 -0.00736438 0)
(-0.0119281 -0.00700757 0)
(-0.010315 -0.00659265 0)
(-0.00879155 -0.00612265 0)
(-0.0073688 -0.00560182 0)
(-0.00605694 -0.00503589 0)
(-0.0048649 -0.00443231 0)
(-0.00380011 -0.00380063 0)
(-0.00286822 -0.00315291 0)
(-0.00207273 -0.00250419 0)
(-0.00141461 -0.00187307 0)
(-0.000891728 -0.00128233 0)
(-0.000498287 -0.000759589 0)
(-0.000223412 -0.000337867 0)
(-5.13765e-05 -5.58828e-05 0)
(-6.99777e-05 0.000142999 0)
(-0.000300383 0.000597174 0)
(-0.000656024 0.00118822 0)
(-0.00115072 0.00187582 0)
(-0.00179279 0.00262521 0)
(-0.00258525 0.00340712 0)
(-0.00352753 0.00419728 0)
(-0.00461618 0.00497591 0)
(-0.0058455 0.00572706 0)
(-0.00720792 0.00643807 0)
(-0.00869431 0.00709903 0)
(-0.0102943 0.0077024 0)
(-0.0119966 0.00824254 0)
(-0.0137889 0.00871544 0)
(-0.0156586 0.00911845 0)
(-0.0175925 0.00945001 0)
(-0.0195772 0.00970951 0)
(-0.0215993 0.00989708 0)
(-0.0236452 0.0100135 0)
(-0.0257016 0.01006 0)
(-0.0277554 0.0100384 0)
(-0.0297938 0.00995077 0)
(-0.0318042 0.00979939 0)
(-0.0337746 0.00958687 0)
(-0.0356936 0.00931599 0)
(-0.0375499 0.00898969 0)
(-0.0393332 0.00861099 0)
(-0.0410334 0.00818305 0)
(-0.0426414 0.00770908 0)
(-0.0441483 0.00719237 0)
(-0.0455461 0.00663625 0)
(-0.0468275 0.00604411 0)
(-0.0479856 0.00541936 0)
(-0.0490145 0.00476547 0)
(-0.0499086 0.00408593 0)
(-0.0506635 0.00338426 0)
(-0.0512749 0.00266405 0)
(-0.0517398 0.0019289 0)
(-0.0520554 0.00118248 0)
(-0.0522201 0.000428468 0)
(-0.0522326 -0.000329367 0)
(-0.0520928 -0.00108723 0)
(-0.0518008 -0.00184127 0)
(-0.051358 -0.00258758 0)
(-0.0507663 -0.00332222 0)
(-0.0500284 -0.00404118 0)
(-0.0491477 -0.00474043 0)
(-0.0481286 -0.00541592 0)
(-0.0469761 -0.00606355 0)
(-0.0456962 -0.00667922 0)
(-0.0442954 -0.00725887 0)
(-0.0427812 -0.00779842 0)
(-0.0411618 -0.00829388 0)
(-0.0394462 -0.0087413 0)
(-0.037644 -0.00913685 0)
(-0.0357657 -0.00947684 0)
(-0.0338222 -0.00975774 0)
(-0.0318253 -0.00997622 0)
(-0.0297874 -0.0101292 0)
(-0.027721 -0.010214 0)
(-0.0256396 -0.0102282 0)
(-0.0235568 -0.0101697 0)
(-0.0214863 -0.0100371 0)
(-0.0194424 -0.00982957 0)
(-0.0174392 -0.00954676 0)
(-0.0154906 -0.00918923 0)
(-0.0136106 -0.0087584 0)
(-0.0118127 -0.00825674 0)
(-0.0101097 -0.00768792 0)
(-0.00851373 -0.00705706 0)
(-0.00703608 -0.00637093 0)
(-0.0056867 -0.00563827 0)
(-0.00447413 -0.00487012 0)
(-0.00340518 -0.00408024 0)
(-0.0024846 -0.00328556 0)
(-0.00171471 -0.00250672 0)
(-0.00109484 -0.00176858 0)
(-0.000620659 -0.00110078 0)
(-0.000282542 -0.000538126 0)
(-6.5565e-05 -0.000120644 0)
(-8.43676e-05 0.000228085 0)
(-0.0003603 0.000851936 0)
(-0.000780152 0.00161212 0)
(-0.00135692 0.00246777 0)
(-0.00209753 0.00338303 0)
(-0.00300333 0.00432725 0)
(-0.00407204 0.00527465 0)
(-0.00529866 0.00620391 0)
(-0.00667602 0.00709762 0)
(-0.00819523 0.00794179 0)
(-0.00984596 0.00872536 0)
(-0.0116167 0.00943977 0)
(-0.0134951 0.0100786 0)
(-0.0154678 0.0106372 0)
(-0.0175213 0.0111124 0)
(-0.0196413 0.0115024 0)
(-0.0218136 0.0118064 0)
(-0.0240236 0.0120245 0)
(-0.0262572 0.0121577 0)
(-0.0284998 0.0122072 0)
(-0.0307377 0.0121752 0)
(-0.0329569 0.012064 0)
(-0.0351443 0.0118764 0)
(-0.037287 0.0116155 0)
(-0.0393725 0.0112845 0)
(-0.0413892 0.010887 0)
(-0.0433257 0.0104264 0)
(-0.0451715 0.0099067 0)
(-0.0469166 0.00933161 0)
(-0.0485516 0.00870509 0)
(-0.050068 0.00803114 0)
(-0.0514579 0.00731383 0)
(-0.0527139 0.00655726 0)
(-0.0538296 0.00576561 0)
(-0.0547993 0.00494307 0)
(-0.0556179 0.0040939 0)
(-0.0562811 0.0032224 0)
(-0.0567855 0.00233292 0)
(-0.0571282 0.00142988 0)
(-0.0573074 0.000517718 0)
(-0.0573219 -0.000399031 0)
(-0.0571712 -0.00131579 0)
(-0.0568558 -0.00222793 0)
(-0.056377 -0.00313074 0)
(-0.0557368 -0.00401947 0)
(-0.0549381 -0.00488931 0)
(-0.0539847 -0.00573542 0)
(-0.0528811 -0.0065529 0)
(-0.0516327 -0.00733686 0)
(-0.0502459 -0.00808237 0)
(-0.0487276 -0.00878453 0)
(-0.047086 -0.00943849 0)
(-0.0453297 -0.0100394 0)
(-0.0434683 -0.0105827 0)
(-0.0415121 -0.0110636 0)
(-0.0394723 -0.0114778 0)
(-0.0373607 -0.0118211 0)
(-0.0351897 -0.0120896 0)
(-0.0329725 -0.0122795 0)
(-0.0307228 -0.0123877 0)
(-0.0284547 -0.0124113 0)
(-0.0261828 -0.012348 0)
(-0.0239219 -0.012196 0)
(-0.0216871 -0.0119544 0)
(-0.0194935 -0.011623 0)
(-0.0173562 -0.0112022 0)
(-0.01529 -0.010694 0)
(-0.0133095 -0.0101012 0)
(-0.0114286 -0.00942814 0)
(-0.00966045 -0.00868074 0)
(-0.00801744 -0.00786682 0)
(-0.00651068 -0.00699631 0)
(-0.00514991 -0.00608166 0)
(-0.00394325 -0.00513819 0)
(-0.00289687 -0.0041845 0)
(-0.00201459 -0.00324299 0)
(-0.00129732 -0.00234024 0)
(-0.000742284 -0.00150748 0)
(-0.000341128 -0.000780784 0)
(-7.96112e-05 -0.000200922 0)
(-9.84682e-05 0.000328689 0)
(-0.000419078 0.00114931 0)
(-0.000902304 0.00210205 0)
(-0.00156047 0.00314589 0)
(-0.00239916 0.00424433 0)
(-0.00341802 0.00536572 0)
(-0.00461302 0.00648312 0)
(-0.00597748 0.00757396 0)
(-0.00750266 0.0086196 0)
(-0.00917824 0.00960491 0)
(-0.0109926 0.0105178 0)
(-0.012933 0.0113488 0)
(-0.0149858 0.0120908 0)
(-0.0171369 0.0127385 0)
(-0.0193716 0.0132884 0)
(-0.0216747 0.0137385 0)
(-0.0240309 0.0140876 0)
(-0.026425 0.0143361 0)
(-0.0288417 0.0144847 0)
(-0.0312658 0.0145353 0)
(-0.0336825 0.01449 0)
(-0.0360773 0.0143516 0)
(-0.0384361 0.0141234 0)
(-0.0407453 0.0138089 0)
(-0.0429917 0.0134119 0)
(-0.0451629 0.0129365 0)
(-0.047247 0.0123868 0)
(-0.0492328 0.0117674 0)
(-0.0511096 0.0110826 0)
(-0.0528677 0.0103372 0)
(-0.0544979 0.00953584 0)
(-0.0559918 0.0086833 0)
(-0.0573417 0.00778443 0)
(-0.0585408 0.00684414 0)
(-0.059583 0.00586739 0)
(-0.0604629 0.0048592 0)
(-0.0611759 0.00382465 0)
(-0.0617185 0.00276889 0)
(-0.0620876 0.00169711 0)
(-0.0622812 0.000614583 0)
(-0.0622979 -0.000473359 0)
(-0.0621375 -0.00156131 0)
(-0.0618003 -0.00264379 0)
(-0.0612876 -0.00371526 0)
(-0.0606017 -0.0047701 0)
(-0.0597455 -0.00580265 0)
(-0.0587231 -0.0068072 0)
(-0.0575392 -0.00777797 0)
(-0.0561995 -0.00870919 0)
(-0.0547107 -0.00959507 0)
(-0.0530804 -0.0104298 0)
(-0.0513168 -0.0112078 0)
(-0.0494292 -0.0119233 0)
(-0.0474279 -0.0125707 0)
(-0.0453236 -0.0131448 0)
(-0.0431282 -0.0136404 0)
(-0.0408542 -0.0140524 0)
(-0.0385149 -0.0143764 0)
(-0.036124 -0.014608 0)
(-0.033696 -0.0147435 0)
(-0.0312461 -0.0147795 0)
(-0.0287896 -0.0147135 0)
(-0.0263422 -0.0145433 0)
(-0.02392 -0.0142679 0)
(-0.0215391 -0.0138869 0)
(-0.0192155 -0.0134012 0)
(-0.0169651 -0.0128128 0)
(-0.0148035 -0.012125 0)
(-0.0127456 -0.0113427 0)
(-0.0108058 -0.0104728 0)
(-0.00899756 -0.00952379 0)
(-0.00733329 -0.00850694 0)
(-0.00582405 -0.00743589 0)
(-0.00447936 -0.00632738 0)
(-0.00330691 -0.0052015 0)
(-0.00231215 -0.00408212 0)
(-0.00149766 -0.00299725 0)
(-0.000862227 -0.00197934 0)
(-0.00039871 -0.00106536 0)
(-9.33989e-05 -0.000296407 0)
(-0.000112232 0.000444409 0)
(-0.000476524 0.0014885 0)
(-0.00102205 0.00265715 0)
(-0.00176063 0.00390945 0)
(-0.0026966 0.00520857 0)
(-0.00382791 0.00652218 0)
(-0.00514877 0.00782246 0)
(-0.00665072 0.00908587 0)
(-0.0083234 0.0102928 0)
(-0.010155 0.011427 0)
(-0.0121324 0.0124757 0)
(-0.0142416 0.0134286 0)
(-0.0164679 0.0142779 0)
(-0.018796 0.0150178 0)
(-0.0212101 0.0156445 0)
(-0.023694 0.0161557 0)
(-0.0262317 0.0165502 0)
(-0.0288069 0.0168283 0)
(-0.0314034 0.016991 0)
(-0.0340054 0.0170402 0)
(-0.036597 0.0169786 0)
(-0.0391632 0.0168092 0)
(-0.0416891 0.0165358 0)
(-0.0441602 0.0161624 0)
(-0.046563 0.0156933 0)
(-0.0488842 0.0151334 0)
(-0.0511114 0.0144874 0)
(-0.0532327 0.0137604 0)
(-0.0552371 0.0129577 0)
(-0.0571142 0.0120845 0)
(-0.0588543 0.0111465 0)
(-0.0604488 0.010149 0)
(-0.0618895 0.00909766 0)
(-0.0631692 0.00799827 0)
(-0.0642815 0.00685655 0)
(-0.0652207 0.00567831 0)
(-0.0659822 0.00446945 0)
(-0.0665619 0.00323595 0)
(-0.0669569 0.00198384 0)
(-0.0671648 0.000719246 0)
(-0.0671845 -0.000551647 0)
(-0.0670153 -0.00182256 0)
(-0.0666578 -0.00308713 0)
(-0.0661133 -0.00433894 0)
(-0.0653841 -0.00557146 0)
(-0.0644733 -0.00677812 0)
(-0.063385 -0.00795228 0)
(-0.0621244 -0.00908727 0)
(-0.0606974 -0.0101764 0)
(-0.0591108 -0.0112129 0)
(-0.0573727 -0.0121902 0)
(-0.0554917 -0.0131016 0)
(-0.0534776 -0.0139405 0)
(-0.0513411 -0.0147006 0)
(-0.0490934 -0.0153757 0)
(-0.0467472 -0.0159597 0)
(-0.0443153 -0.016447 0)
(-0.0418119 -0.0168322 0)
(-0.0392514 -0.0171105 0)
(-0.0366491 -0.0172775 0)
(-0.0340208 -0.0173293 0)
(-0.0313829 -0.017263 0)
(-0.0287518 -0.0170762 0)
(-0.0261446 -0.0167675 0)
(-0.0235783 -0.0163368 0)
(-0.0210699 -0.0157848 0)
(-0.0186364 -0.0151138 0)
(-0.0162943 -0.0143275 0)
(-0.0140598 -0.0134315 0)
(-0.0119484 -0.0124332 0)
(-0.00997487 -0.0113421 0)
(-0.00815286 -0.0101705 0)
(-0.00649488 -0.00893319 0)
(-0.00501197 -0.0076481 0)
(-0.00371344 -0.00633663 0)
(-0.00260642 -0.00502393 0)
(-0.00169518 -0.00373916 0)
(-0.000980089 -0.00251573 0)
(-0.000455102 -0.00139119 0)
(-0.000106882 -0.000406737 0)
(-0.000125654 0.000574843 0)
(-0.00053262 0.00186868 0)
(-0.00113933 0.00327644 0)
(-0.00195723 0.00475752 0)
(-0.00298952 0.00627497 0)
(-0.00423253 0.00779603 0)
(-0.00567867 0.00929226 0)
(-0.0073177 0.0107393 0)
(-0.00913756 0.0121168 0)
(-0.0111248 0.0134078 0)
(-0.0132649 0.0145987 0)
(-0.0155425 0.0156785 0)
(-0.0179417 0.0166389 0)
(-0.0204458 0.0174739 0)
(-0.0230382 0.0181791 0)
(-0.0257016 0.0187522 0)
(-0.028419 0.019192 0)
(-0.0311732 0.0194988 0)
(-0.0339473 0.0196737 0)
(-0.0367244 0.019719 0)
(-0.0394882 0.0196376 0)
(-0.0422227 0.0194332 0)
(-0.0449123 0.0191097 0)
(-0.0475422 0.018672 0)
(-0.0500978 0.0181249 0)
(-0.0525655 0.0174738 0)
(-0.0549322 0.0167243 0)
(-0.0571857 0.0158821 0)
(-0.0593143 0.0149532 0)
(-0.0613072 0.0139437 0)
(-0.0631544 0.0128598 0)
(-0.0648467 0.0117079 0)
(-0.0663757 0.0104944 0)
(-0.0677338 0.00922582 0)
(-0.0689144 0.00790872 0)
(-0.0699116 0.00654979 0)
(-0.0707204 0.00515578 0)
(-0.0713367 0.00373353 0)
(-0.0717573 0.00228994 0)
(-0.0719799 0.000832016 0)
(-0.072003 -0.000633146 0)
(-0.0718261 -0.00209837 0)
(-0.0714497 -0.00355636 0)
(-0.0708752 -0.00499978 0)
(-0.0701048 -0.00642116 0)
(-0.0691419 -0.00781298 0)
(-0.0679908 -0.00916765 0)
(-0.0666565 -0.0104775 0)
(-0.0651454 -0.0117349 0)
(-0.0634646 -0.0129322 0)
(-0.0616224 -0.0140617 0)
(-0.0596277 -0.0151158 0)
(-0.0574909 -0.0160871 0)
(-0.0552229 -0.0169683 0)
(-0.0528356 -0.0177522 0)
(-0.050342 -0.0184319 0)
(-0.0477558 -0.0190011 0)
(-0.0450916 -0.0194536 0)
(-0.0423645 -0.0197838 0)
(-0.0395906 -0.0199868 0)
(-0.0367864 -0.0200581 0)
(-0.0339691 -0.0199944 0)
(-0.0311561 -0.0197929 0)
(-0.0283652 -0.0194521 0)
(-0.0256145 -0.0189716 0)
(-0.022922 -0.0183523 0)
(-0.0203056 -0.0175966 0)
(-0.0177832 -0.0167088 0)
(-0.0153719 -0.0156946 0)
(-0.0130886 -0.0145623 0)
(-0.0109493 -0.0133223 0)
(-0.00896914 -0.0119875 0)
(-0.00716206 -0.0105739 0)
(-0.00554075 -0.00910048 0)
(-0.00411617 -0.00758979 0)
(-0.00289719 -0.00606805 0)
(-0.00188978 -0.00456537 0)
(-0.00109584 -0.00311587 0)
(-0.000510305 -0.00175755 0)
(-0.000120061 -0.000531545 0)
(-0.000138761 0.00071961 0)
(-0.000587463 0.00228903 0)
(-0.00125428 0.00395894 0)
(-0.00215045 0.00568913 0)
(-0.00327814 0.00744269 0)
(-0.00463208 0.00918661 0)
(-0.00620293 0.010892 0)
(-0.00797867 0.012534 0)
(-0.00994546 0.0140915 0)
(-0.0120882 0.0155471 0)
(-0.0143909 0.0168864 0)
(-0.0168368 0.0180981 0)
(-0.0194085 0.0191735 0)
(-0.0220883 0.020106 0)
(-0.0248584 0.0208914 0)
(-0.0277005 0.0215269 0)
(-0.0305965 0.0220116 0)
(-0.0335285 0.0223458 0)
(-0.0364785 0.0225309 0)
(-0.0394291 0.0225694 0)
(-0.042363 0.0224647 0)
(-0.0452637 0.0222209 0)
(-0.0481148 0.0218426 0)
(-0.0509008 0.021335 0)
(-0.0536067 0.0207037 0)
(-0.0562183 0.0199549 0)
(-0.058722 0.0190946 0)
(-0.0611049 0.0181296 0)
(-0.0633552 0.0170664 0)
(-0.0654615 0.015912 0)
(-0.0674135 0.0146735 0)
(-0.0692016 0.013358 0)
(-0.070817 0.0119727 0)
(-0.0722521 0.0105251 0)
(-0.0734997 0.00902255 0)
(-0.0745538 0.00747263 0)
(-0.0754093 0.00588298 0)
(-0.0760619 0.00426131 0)
(-0.0765081 0.00261545 0)
(-0.0767456 0.00095332 0)
(-0.0767729 -0.000717063 0)
(-0.0765894 -0.00238757 0)
(-0.0761955 -0.00404998 0)
(-0.0755926 -0.00569596 0)