/*--------------------------------*- C++ -*----------------------------------*\
| =========                 |                                                 |
| \\      /  F ield         | OpenFOAM: The Open Source CFD Toolbox           |
|  \\    /   O peration     | Version:  4.1                                   |
|   \\  /    A nd           | Web:      www.OpenFOAM.org                      |
|    \\/     M anipulation  |                                                 |
\*---------------------------------------------------------------------------*/
FoamFile
{
    version     2.0;
    format      ascii;
    class       volVectorField;
    location    "0.018";
    object      U;
}
// * * * * * * * * * * * * * * * * * * * * * * * * * * * * * * * * * * * * * //

dimensions      [0 1 -1 0 0 0 0];

internalField   nonuniform List<vector> 
1600
(
(-3.17831e-06 2.04057e-06 0)
(-5.30095e-05 5.73966e-05 0)
(-0.000183798 0.000136204 0)
(-0.000401975 0.00021627 0)
(-0.000701407 0.000287412 0)
(-0.00106897 0.00034513 0)
(-0.00148872 0.000387819 0)
(-0.00194412 0.000415475 0)
(-0.00241926 0.000428963 0)
(-0.00289957 0.000429589 0)
(-0.00337207 0.000418847 0)
(-0.00382551 0.00039826 0)
(-0.00425026 0.000369289 0)
(-0.00463826 0.000333287 0)
(-0.00498282 0.000291476 0)
(-0.00527849 0.000244948 0)
(-0.00552094 0.000194676 0)
(-0.00570675 0.000141533 0)
(-0.00583343 8.6315e-05 0)
(-0.00589923 2.97699e-05 0)
(-0.00590318 -2.73784e-05 0)
(-0.00584504 -8.44012e-05 0)
(-0.00572532 -0.000140539 0)
(-0.00554532 -0.000194975 0)
(-0.00530724 -0.000246815 0)
(-0.00501421 -0.00029506 0)
(-0.00467048 -0.0003386 0)
(-0.00428152 -0.000376195 0)
(-0.00385416 -0.000406479 0)
(-0.00339675 -0.000427976 0)
(-0.00291932 -0.000439127 0)
(-0.00243359 -0.000438358 0)
(-0.00195305 -0.000424176 0)
(-0.00149277 -0.000395336 0)
(-0.00106906 -0.000351098 0)
(-0.000698805 -0.000291648 0)
(-0.00039808 -0.000218814 0)
(-0.000179967 -0.000137334 0)
(-5.03382e-05 -5.76007e-05 0)
(-2.32461e-06 -1.81544e-06 0)
(-6.04098e-05 5.0016e-05 0)
(-0.000305322 0.000297137 0)
(-0.000747114 0.000617272 0)
(-0.00139752 0.000938016 0)
(-0.00224263 0.00122224 0)
(-0.00325231 0.00145239 0)
(-0.0043889 0.00162197 0)
(-0.0056123 0.00173079 0)
(-0.00688315 0.00178222 0)
(-0.00816474 0.00178147 0)
(-0.00942391 0.00173453 0)
(-0.0106315 0.00164759 0)
(-0.0117624 0.00152656 0)
(-0.0127952 0.00137695 0)
(-0.0137123 0.00120374 0)
(-0.0144992 0.00101138 0)
(-0.0151442 0.000803843 0)
(-0.0156382 0.000584672 0)
(-0.0159745 0.000357117 0)
(-0.0161485 0.000124214 0)
(-0.0161577 -0.000111097 0)
(-0.0160014 -0.000345861 0)
(-0.0156812 -0.000577001 0)
(-0.0152006 -0.000801216 0)
(-0.0145657 -0.00101488 0)
(-0.013785 -0.00121397 0)
(-0.0128698 -0.00139398 0)
(-0.0118347 -0.0015499 0)
(-0.0106978 -0.0016762 0)
(-0.00948115 -0.00176689 0)
(-0.00821066 -0.00181566 0)
(-0.00691663 -0.00181616 0)
(-0.00563335 -0.00176235 0)
(-0.00439869 -0.00164926 0)
(-0.00325298 -0.00147398 0)
(-0.00223703 -0.00123737 0)
(-0.00138885 -0.000946754 0)
(-0.000738488 -0.000620604 0)
(-0.000299281 -0.000296926 0)
(-5.8485e-05 -4.87711e-05 0)
(-0.000141699 0.000178842 0)
(-0.000634425 0.000734313 0)
(-0.00141326 0.00138365 0)
(-0.00248603 0.00201759 0)
(-0.00383148 0.00257499 0)
(-0.00540756 0.00302502 0)
(-0.00716164 0.00335558 0)
(-0.00903702 0.00356603 0)
(-0.0109774 0.00366251 0)
(-0.0129294 0.00365486 0)
(-0.0148446 0.00355466 0)
(-0.0166799 0.00337398 0)
(-0.0183977 0.00312451 0)
(-0.0199662 0.00281722 0)
(-0.0213587 0.0024621 0)
(-0.0225531 0.0020681 0)
(-0.0235318 0.00164327 0)
(-0.0242811 0.00119482 0)
(-0.0247906 0.000729375 0)
(-0.0250535 0.000253118 0)
(-0.0250659 -0.000227945 0)
(-0.024827 -0.000707789 0)
(-0.0243392 -0.00118015 0)
(-0.0236082 -0.00163833 0)
(-0.022643 -0.00207498 0)
(-0.0214569 -0.00248195 0)
(-0.0200669 -0.0028502 0)
(-0.0184953 -0.00316966 0)
(-0.0167693 -0.00342928 0)
(-0.0149217 -0.0036172 0)
(-0.0129911 -0.00372096 0)
(-0.0110222 -0.00372812 0)
(-0.00906498 -0.00362708 0)
(-0.00717434 -0.0034084 0)
(-0.00540791 -0.00306683 0)
(-0.00382335 -0.00260427 0)
(-0.00247377 -0.00203444 0)
(-0.00140114 -0.00138993 0)
(-0.000625937 -0.000733639 0)
(-0.000138959 -0.000176328 0)
(-0.000227295 0.000396707 0)
(-0.00097709 0.00138662 0)
(-0.00209192 0.00245348 0)
(-0.00356921 0.00346667 0)
(-0.00537753 0.00434791 0)
(-0.00746358 0.0050556 0)
(-0.00976254 0.00557286 0)
(-0.0122049 0.00589893 0)
(-0.0147213 0.00604311 0)
(-0.0172459 0.00602046 0)
(-0.0197184 0.00584896 0)
(-0.0220847 0.0055475 0)
(-0.0242978 0.00513464 0)
(-0.0263173 0.00462785 0)
(-0.0281093 0.00404319 0)
(-0.0296458 0.00339515 0)
(-0.0309043 0.00269677 0)
(-0.0318673 0.00195986 0)
(-0.0325217 0.00119521 0)
(-0.0328586 0.000412973 0)
(-0.0328731 -0.000377001 0)
(-0.0325645 -0.00116484 0)
(-0.0319357 -0.0019403 0)
(-0.0309941 -0.00269242 0)
(-0.0297515 -0.00340925 0)
(-0.0282245 -0.00407757 0)
(-0.0264354 -0.00468271 0)
(-0.0244121 -0.00520846 0)
(-0.0221892 -0.00563713 0)
(-0.0198081 -0.00594977 0)
(-0.0173174 -0.0061267 0)
(-0.0147726 -0.00614841 0)
(-0.0122362 -0.00599687 0)
(-0.00977581 -0.00565767 0)
(-0.00746223 -0.00512285 0)
(-0.00536621 -0.00439518 0)
(-0.00355318 -0.00349404 0)
(-0.00207635 -0.00246384 0)
(-0.000966222 -0.00138571 0)
(-0.00022375 -0.000392767 0)
(-0.000309318 0.000701906 0)
(-0.00130551 0.00225287 0)
(-0.00274079 0.00382598 0)
(-0.00459955 0.00528157 0)
(-0.00683786 0.0065317 0)
(-0.00939042 0.00752811 0)
(-0.0121809 0.00825124 0)
(-0.0151285 0.00870137 0)
(-0.0181532 0.00889174 0)
(-0.021179 0.0088434 0)
(-0.0241361 0.00858146 0)
(-0.0269619 0.00813249 0)
(-0.0296017 0.00752277 0)
(-0.0320085 0.00677721 0)
(-0.0341428 0.00591879 0)
(-0.0359717 0.0049684 0)
(-0.0374691 0.0039449 0)
(-0.0386144 0.00286539 0)
(-0.0393921 0.0017456 0)
(-0.0397921 0.000600306 0)
(-0.0398086 -0.000556136 0)
(-0.0394407 -0.00170934 0)
(-0.0386919 -0.00284439 0)
(-0.0375709 -0.00394535 0)
(-0.0360916 -0.00499488 0)
(-0.0342734 -0.00597386 0)
(-0.0321424 -0.00686112 0)
(-0.0297312 -0.00763338 0)
(-0.0270801 -0.00826529 0)
(-0.0242374 -0.00872988 0)
(-0.0212593 -0.00899927 0)
(-0.0182105 -0.00904597 0)
(-0.0151628 -0.00884481 0)
(-0.0121944 -0.00837561 0)
(-0.0093871 -0.00762704 0)
(-0.00682312 -0.00660163 0)
(-0.00457952 -0.0053225 0)
(-0.00272155 -0.00384197 0)
(-0.00129209 -0.00225212 0)
(-0.000304901 -0.000696393 0)
(-0.000385309 0.00108826 0)
(-0.00161048 0.00332194 0)
(-0.0033457 0.00548883 0)
(-0.00556219 0.00744851 0)
(-0.00820247 0.00910983 0)
(-0.0111884 0.0104222 0)
(-0.0144317 0.0113662 0)
(-0.0178411 0.0119449 0)
(-0.0213267 0.0121768 0)
(-0.0248036 0.01209 0)
(-0.028194 0.0117175 0)
(-0.0314283 0.0110946 0)
(-0.0344456 0.0102559 0)
(-0.0371937 0.00923465 0)
(-0.0396286 0.00806151 0)
(-0.0417138 0.00676445 0)
(-0.0434202 0.00536882 0)
(-0.0447247 0.00389765 0)
(-0.0456105 0.00237215 0)
(-0.0460661 0.000812291 0)
(-0.046085 -0.00076256 0)
(-0.0456663 -0.00233296 0)
(-0.0448138 -0.00387878 0)
(-0.0435372 -0.00537852 0)
(-0.0418518 -0.00680883 0)
(-0.0397792 -0.00814397 0)
(-0.0373483 -0.00935554 0)
(-0.0345955 -0.0104124 0)
(-0.0315655 -0.0112806 0)
(-0.0283119 -0.0119243 0)
(-0.0248975 -0.0123065 0)
(-0.021394 -0.0123909 0)
(-0.0178818 -0.0121441 0)
(-0.0144482 -0.0115393 0)
(-0.011185 -0.0105605 0)
(-0.00818552 -0.00920831 0)
(-0.00553879 -0.00750697 0)
(-0.003323 -0.00551256 0)
(-0.00159452 -0.00332198 0)
(-0.000379988 -0.00108105 0)
(-0.000455371 0.00154887 0)
(-0.00189243 0.00458048 0)
(-0.00390833 0.00742684 0)
(-0.00646215 0.00995175 0)
(-0.00948268 0.0120656 0)
(-0.0128783 0.0137196 0)
(-0.0165485 0.0148972 0)
(-0.020391 0.0156067 0)
(-0.0243064 0.0158735 0)
(-0.0282015 0.0157338 0)
(-0.0319912 0.0152299 0)
(-0.0355999 0.0144064 0)
(-0.0389616 0.0133076 0)
(-0.0420197 0.0119754 0)
(-0.0447265 0.0104491 0)
(-0.0470431 0.00876424 0)
(-0.0489378 0.00695326 0)
(-0.0503861 0.00504558 0)
(-0.0513696 0.00306834 0)
(-0.0518761 0.00104709 0)
(-0.0518987 -0.000993373 0)
(-0.051436 -0.00302819 0)
(-0.0504923 -0.00503157 0)
(-0.0490777 -0.00697605 0)
(-0.0472084 -0.00883172 0)
(-0.0449077 -0.0105657 0)
(-0.0422065 -0.0121416 0)
(-0.0391438 -0.0135197 0)
(-0.0357681 -0.0146569 0)
(-0.0321373 -0.0155072 0)
(-0.0283196 -0.0160238 0)
(-0.0243933 -0.0161603 0)
(-0.0204462 -0.0158742 0)
(-0.0165743 -0.0151305 0)
(-0.0128797 -0.013907 0)
(-0.00946689 -0.0122004 0)
(-0.00643746 -0.0100331 0)
(-0.00388327 -0.00746136 0)
(-0.00187436 -0.00458244 0)
(-0.000449215 -0.00153996 0)
(-0.000520867 0.00207794 0)
(-0.00215673 0.00601696 0)
(-0.00443899 0.00962688 0)
(-0.00731589 0.0127782 0)
(-0.0107027 0.0153864 0)
(-0.0144939 0.0174073 0)
(-0.0185763 0.0188306 0)
(-0.0228361 0.0196719 0)
(-0.027164 0.0199653 0)
(-0.0314586 0.0197571 0)
(-0.035628 0.0191 0)
(-0.0395909 0.0180492 0)
(-0.0432768 0.0166592 0)
(-0.0466254 0.014982 0)
(-0.0495864 0.0130656 0)
(-0.0521186 0.0109541 0)
(-0.0541887 0.00868723 0)
(-0.055771 0.00630134 0)
(-0.0568462 0.00382976 0)
(-0.0574015 0.00130391 0)
(-0.0574295 -0.00124578 0)
(-0.0569286 -0.00378874 0)
(-0.0559031 -0.00629329 0)
(-0.0543631 -0.00872564 0)
(-0.0523256 -0.0110489 0)
(-0.0498146 -0.0132227 0)
(-0.0468623 -0.015202 0)
(-0.04351 -0.0169377 0)
(-0.0398088 -0.0183766 0)
(-0.0358205 -0.0194621 0)
(-0.0316181 -0.0201359 0)
(-0.0272858 -0.0203406 0)
(-0.0229189 -0.0200229 0)
(-0.0186224 -0.0191383 0)
(-0.0145086 -0.0176564 0)
(-0.0106941 -0.0155674 0)
(-0.00729386 -0.0128897 0)
(-0.00441381 -0.00967663 0)
(-0.00213753 -0.00602276 0)
(-0.000514089 -0.00206754 0)
(-0.000583747 0.00267157 0)
(-0.00241109 0.00762387 0)
(-0.00495235 0.0120808 0)
(-0.00814596 0.0159205 0)
(-0.0118939 0.0190656 0)
(-0.0160766 0.0214796 0)
(-0.0205671 0.0231605 0)
(-0.0252395 0.0241339 0)
(-0.0299745 0.024445 0)
(-0.034662 0.0241515 0)
(-0.0392032 0.0233184 0)
(-0.0435114 0.0220126 0)
(-0.0475118 0.0203002 0)
(-0.0511413 0.0182438 0)
(-0.0543472 0.0159013 0)
(-0.0570866 0.0133255 0)
(-0.0593253 0.010564 0)
(-0.0610367 0.00766029 0)
(-0.0622011 0.00465413 0)
(-0.062805 0.00158291 0)
(-0.0628408 -0.00151712 0)
(-0.0623066 -0.00460964 0)
(-0.0612063 -0.0076569 0)
(-0.05955 -0.0106186 0)
(-0.0573545 -0.0134506 0)
(-0.0546444 -0.0161044 0)
(-0.0514525 -0.0185261 0)
(-0.0478215 -0.0206565 0)
(-0.0438048 -0.0224311 0)
(-0.0394673 -0.0237815 0)
(-0.0348865 -0.0246371 0)
(-0.0301528 -0.0249277 0)
(-0.0253688 -0.0245877 0)
(-0.020649 -0.0235608 0)
(-0.0161168 -0.0218065 0)
(-0.0119017 -0.0193065 0)
(-0.00813272 -0.0160723 0)
(-0.00493064 -0.0121522 0)
(-0.00239243 -0.00763663 0)
(-0.000576727 -0.00266031 0)
(-0.000646194 0.00332817 0)
(-0.00266418 0.00939875 0)
(-0.005465 0.014787 0)
(-0.00897782 0.0193788 0)
(-0.0130913 0.0231051 0)
(-0.017671 0.0259391 0)
(-0.0225758 0.0278899 0)
(-0.0276669 0.0289954 0)
(-0.0328138 0.0293138 0)
(-0.0378976 0.028917 0)
(-0.0428123 0.0278835 0)
(-0.0474659 0.026294 0)
(-0.0517798 0.024227 0)
(-0.055688 0.0217568 0)
(-0.0591361 0.018952 0)
(-0.0620802 0.0158745 0)
(-0.0644854 0.0125805 0)
(-0.0663247 0.0091205 0)
(-0.0675783 0.00554091 0)
(-0.0682323 0.00188513 0)
(-0.068279 -0.00180487 0)
(-0.0677158 -0.00548699 0)
(-0.0665463 -0.00911744 0)
(-0.06478 -0.0126493 0)
(-0.0624332 -0.016031 0)
(-0.0595302 -0.0192056 0)
(-0.0561041 -0.0221097 0)
(-0.0521982 -0.024673 0)
(-0.0478677 -0.0268192 0)
(-0.0431804 -0.0284668 0)
(-0.038218 -0.029531 0)
(-0.0330768 -0.0299272 0)
(-0.0278676 -0.0295754 0)
(-0.0227146 -0.0284056 0)
(-0.0177536 -0.0263647 0)
(-0.0131279 -0.0234234 0)
(-0.00898192 -0.0195845 0)
(-0.00545191 -0.0148893 0)
(-0.0026485 -0.00942331 0)
(-0.000639501 -0.00331725 0)
(-0.000710456 0.00404854 0)
(-0.00292496 0.0113447 0)
(-0.00599418 0.0177512 0)
(-0.00983791 0.0231613 0)
(-0.014331 0.0275152 0)
(-0.0193233 0.0307974 0)
(-0.0246582 0.0330305 0)
(-0.0301833 0.0342671 0)
(-0.0357561 0.0345814 0)
(-0.0412481 0.0340613 0)
(-0.0465461 0.0328012 0)
(-0.0515525 0.0308971 0)
(-0.056185 0.0284415 0)
(-0.0603754 0.0255218 0)
(-0.0640681 0.0222175 0)
(-0.0672184 0.0186009 0)
(-0.0697913 0.0147364 0)
(-0.0717601 0.0106822 0)
(-0.0731048 0.00649106 0)
(-0.0738118 0.00221231 0)
(-0.0738729 -0.00210648 0)
(-0.0732851 -0.00641763 0)
(-0.0720511 -0.0106714 0)
(-0.0701795 -0.0148144 0)
(-0.0676856 -0.0187874 0)
(-0.0645928 -0.0225248 0)
(-0.0609337 -0.025953 0)
(-0.0567517 -0.0289902 0)
(-0.0521032 -0.0315468 0)
(-0.0470583 -0.0335267 0)
(-0.0417029 -0.0348293 0)
(-0.0361394 -0.0353535 0)
(-0.030487 -0.0350026 0)
(-0.0248809 -0.0336903 0)
(-0.0194699 -0.0313482 0)
(-0.0144128 -0.0279339 0)
(-0.00987068 -0.0234391 0)
(-0.00599656 -0.0178972 0)
(-0.00291556 -0.0113881 0)
(-0.000704868 -0.00403996 0)
(-0.000778767 0.00483583 0)
(-0.00320236 0.0134703 0)
(-0.00655711 0.0209868 0)
(-0.0107528 0.0272849 0)
(-0.0156492 0.032315 0)
(-0.0210791 0.0360747 0)
(-0.0268694 0.0386024 0)
(-0.0328523 0.0399681 0)
(-0.0388728 0.0402646 0)
(-0.044792 0.0395986 0)
(-0.0504889 0.038083 0)
(-0.0558608 0.0358307 0)
(-0.0608218 0.0329504 0)
(-0.0653018 0.0295432 0)
(-0.0692443 0.0257012 0)
(-0.0726049 0.0215068 0)
(-0.075349 0.0170336 0)
(-0.0774504 0.0123471 0)
(-0.0788896 0.00750651 0)
(-0.0796533 0.00256681 0)
(-0.0797329 -0.00241922 0)
(-0.0791249 -0.00739866 0)
(-0.077831 -0.0123162 0)
(-0.0758583 -0.0171118 0)
(-0.0732205 -0.0217191 0)
(-0.0699394 -0.0260633 0)
(-0.0660462 -0.0300601 0)
(-0.0615838 -0.0336153 0)
(-0.0566089 -0.0366248 0)
(-0.0511937 -0.0389761 0)
(-0.0454278 -0.0405509 0)
(-0.03942 -0.0412292 0)
(-0.0332982 -0.0408947 0)
(-0.0272094 -0.0394419 0)
(-0.0213171 -0.0367844 0)
(-0.0157969 -0.0328639 0)
(-0.0108287 -0.027659 0)
(-0.00658384 -0.0211937 0)
(-0.00320353 -0.0135427 0)
(-0.000775304 -0.00483265 0)
(-0.000853336 0.0056955 0)
(-0.00350518 0.0157898 0)
(-0.00717087 0.0245145 0)
(-0.0117486 0.0317751 0)
(-0.0170815 0.0375327 0)
(-0.0229835 0.0417999 0)
(-0.0292627 0.0446334 0)
(-0.035735 0.0461241 0)
(-0.0422314 0.0463863 0)
(-0.0486021 0.0455485 0)
(-0.0547182 0.0437446 0)
(-0.0604717 0.0411073 0)
(-0.0657736 0.0377628 0)
(-0.0705523 0.0338277 0)
(-0.0747516 0.0294075 0)
(-0.0783276 0.0245956 0)
(-0.081247 0.0194746 0)
(-0.0834846 0.0141176 0)
(-0.0850222 0.00858983 0)
(-0.0858466 0.00295144 0)
(-0.0859495 -0.00274003 0)
(-0.0853265 -0.00842695 0)
(-0.0839778 -0.0140488 0)
(-0.0819087 -0.0195398 0)
(-0.0791304 -0.0248258 0)
(-0.0756624 -0.0298231 0)
(-0.0715336 -0.0344363 0)
(-0.0667854 -0.0385577 0)
(-0.0614739 -0.0420673 0)
(-0.0556726 -0.0448344 0)
(-0.0494745 -0.0467206 0)
(-0.0429946 -0.0475839 0)
(-0.0363701 -0.0472853 0)
(-0.0297608 -0.0456969 0)
(-0.0233462 -0.0427108 0)
(-0.017321 -0.0382497 0)
(-0.0118858 -0.0322769 0)
(-0.0072331 -0.0248056 0)
(-0.00352237 -0.015905 0)
(-0.000853294 -0.00570215 0)
(-0.000936363 0.00663529 0)
(-0.00384219 0.018323 0)
(-0.00785237 0.0283629 0)
(-0.0128514 0.0366659 0)
(-0.0186631 0.0432048 0)
(-0.0250799 0.0480097 0)
(-0.0318894 0.0511589 0)
(-0.038889 0.052767 0)
(-0.0458945 0.0529741 0)
(-0.0527448 0.0519338 0)
(-0.0593029 0.0498043 0)
(-0.0654554 0.0467406 0)
(-0.0711111 0.0428887 0)
(-0.0761978 0.0383824 0)
(-0.0806601 0.0333412 0)
(-0.084456 0.0278705 0)
(-0.087554 0.0220621 0)
(-0.0899311 0.0159961 0)
(-0.0915705 0.00974366 0)
(-0.09246 0.00336938 0)
(-0.0925912 -0.00306523 0)
(-0.0919591 -0.00949859 0)
(-0.0905621 -0.0158658 0)
(-0.0884027 -0.0220954 0)
(-0.0854892 -0.0281064 0)
(-0.0818374 -0.033806 0)
(-0.0774731 -0.0390871 0)
(-0.0724347 -0.0438276 0)
(-0.0667766 -0.0478901 0)
(-0.0605726 -0.0511238 0)
(-0.0539186 -0.0533669 0)
(-0.0469351 -0.0544525 0)
(-0.0397694 -0.0542152 0)
(-0.0325946 -0.0525001 0)
(-0.025608 -0.0491743 0)
(-0.0190257 -0.0441377 0)
(-0.0130721 -0.0373355 0)
(-0.00796392 -0.0287682 0)
(-0.00388217 -0.0184995 0)
(-0.000941357 -0.00665793 0)
(-0.00103007 0.00766519 0)
(-0.00422222 0.0210949 0)
(-0.0086186 0.0325675 0)
(-0.014087 0.0419991 0)
(-0.0204285 0.049376 0)
(-0.0274109 0.0547484 0)
(-0.0347984 0.0582197 0)
(-0.0423681 0.0599333 0)
(-0.0499195 0.0600588 0)
(-0.0572791 0.0587794 0)
(-0.0643019 0.0562811 0)
(-0.0708701 0.0527443 0)
(-0.0768907 0.0483373 0)
(-0.0822922 0.0432127 0)
(-0.0870213 0.0375056 0)
(-0.0910388 0.0313333 0)
(-0.0943165 0.0247972 0)
(-0.0968344 0.0179841 0)
(-0.0985779 0.0109703 0)
(-0.0995363 0.00382395 0)
(-0.0997014 -0.00339038 0)
(-0.0990673 -0.0106082 0)
(-0.0976302 -0.0177613 0)
(-0.0953894 -0.0247734 0)
(-0.0923491 -0.0315573 0)
(-0.0885204 -0.0380109 0)
(-0.0839241 -0.0440153 0)
(-0.0785945 -0.0494332 0)
(-0.0725828 -0.0541082 0)
(-0.0659614 -0.0578665 0)
(-0.0588279 -0.0605205 0)
(-0.0513082 -0.0618739 0)
(-0.043559 -0.0617304 0)
(-0.0357682 -0.0599039 0)
(-0.0281525 -0.0562309 0)
(-0.0209519 -0.0505844 0)
(-0.0144181 -0.0428875 0)
(-0.00879634 -0.033126 0)
(-0.00429334 -0.021357 0)
(-0.00104209 -0.00771213 0)
(-0.00113675 0.00879752 0)
(-0.00465436 0.0241363 0)
(-0.00948682 0.0371714 0)
(-0.0154813 0.0478247 0)
(-0.0224117 0.0560982 0)
(-0.0300174 0.062066 0)
(-0.038036 0.0658618 0)
(-0.0462217 0.0676623 0)
(-0.0543565 0.0676724 0)
(-0.0622544 0.0661095 0)
(-0.0697624 0.0631921 0)
(-0.0767591 0.0591292 0)
(-0.0831512 0.0541143 0)
(-0.0888694 0.0483207 0)
(-0.093864 0.0419001 0)
(-0.0981003 0.0349825 0)
(-0.101555 0.0276784 0)
(-0.104212 0.0200812 0)
(-0.106059 0.0122709 0)
(-0.107089 0.0043185 0)
(-0.107294 -0.00370997 0)
(-0.106666 -0.0117485 0)
(-0.1052 -0.0197267 0)
(-0.10289 -0.0275649 0)
(-0.0997362 -0.03517 0)
(-0.0957428 -0.0424317 0)
(-0.0909244 -0.049219 0)
(-0.0853086 -0.0553783 0)
(-0.0789418 -0.0607326 0)
(-0.0718931 -0.0650827 0)
(-0.0642602 -0.0682111 0)
(-0.056173 -0.0698881 0)
(-0.0477975 -0.0698809 0)
(-0.0393367 -0.0679663 0)
(-0.0310287 -0.0639443 0)
(-0.0231403 -0.0576552 0)
(-0.0159549 -0.0489953 0)
(-0.00975106 -0.0379322 0)
(-0.0047667 -0.0245152 0)
(-0.0011582 -0.00887974 0)
(-0.00125881 0.010047 0)
(-0.00514805 0.0274832 0)
(-0.0104748 0.0422246 0)
(-0.0170603 0.0541999 0)
(-0.0246464 0.0634298 0)
(-0.0329387 0.0700179 0)
(-0.0416444 0.0741335 0)
(-0.050493 0.075994 0)
(-0.0592471 0.0758453 0)
(-0.0677081 0.0739453 0)
(-0.0757161 0.0705497 0)
(-0.0831472 0.0659006 0)
(-0.0899098 0.0602194 0)
(-0.0959386 0.0537022 0)
(-0.10119 0.0465185 0)
(-0.105635 0.0388114 0)
(-0.109257 0.0307002 0)
(-0.112045 0.0222838 0)
(-0.113994 0.0136451 0)
(-0.115096 0.0048561 0)
(-0.115345 -0.00401729 0)
(-0.114733 -0.0129093 0)
(-0.113252 -0.0217491 0)
(-0.110891 -0.0304551 0)
(-0.107644 -0.0389299 0)
(-0.103506 -0.0470553 0)
(-0.0984834 -0.0546885 0)
(-0.092596 -0.061659 0)
(-0.0858818 -0.0677673 0)
(-0.0784045 -0.0727863 0)
(-0.0702592 -0.0764645 0)
(-0.0615784 -0.0785334 0)
(-0.0525363 -0.0787176 0)
(-0.0433511 -0.0767492 0)
(-0.0342838 -0.0723847 0)
(-0.0256316 -0.0654241 0)
(-0.0177141 -0.0557308 0)
(-0.0108496 -0.0432493 0)
(-0.00531366 -0.0280189 0)
(-0.00129254 -0.0101787 0)
(-0.00139878 0.0114307 0)
(-0.00571327 0.0311775 0)
(-0.0116009 0.0477843 0)
(-0.0188506 0.0611885 0)
(-0.0271652 0.0714347 0)
(-0.0362112 0.0786621 0)
(-0.0456613 0.083084 0)
(-0.0552169 0.084966 0)
(-0.064621 0.0846034 0)
(-0.0736623 0.0823013 0)
(-0.0821751 0.0783585 0)
(-0.0900356 0.0730548 0)
(-0.097156 0.066643 0)
(-0.103478 0.0593441 0)
(-0.108965 0.0513464 0)
(-0.113599 0.0428061 0)
(-0.117371 0.033851 0)
(-0.120277 0.0245843 0)
(-0.122317 0.01509 0)
(-0.123489 0.00543928 0)
(-0.123788 -0.00430417 0)
(-0.123204 -0.0140771 0)
(-0.121726 -0.0238103 0)
(-0.119337 -0.0334223 0)
(-0.116023 -0.0428132 0)
(-0.111771 -0.0518581 0)
(-0.106575 -0.0604029 0)
(-0.100443 -0.0682597 0)
(-0.0934022 -0.0752053 0)
(-0.0855078 -0.0809814 0)
(-0.0768491 -0.0852982 0)
(-0.0675583 -0.0878423 0)
(-0.057816 -0.0882883 0)
(-0.0478553 -0.0863152 0)
(-0.0379615 -0.0816262 0)
(-0.0284651 -0.0739721 0)
(-0.0197276 -0.0631746 0)
(-0.012114 -0.0491487 0)
(-0.0059462 -0.0319198 0)
(-0.00144814 -0.0116302 0)
(-0.00155938 0.0129688 0)
(-0.00636055 0.0352669 0)
(-0.0128841 0.0539143 0)
(-0.0208785 0.0688605 0)
(-0.0299993 0.0801804 0)
(-0.0398674 0.0880576 0)
(-0.0501162 0.0927595 0)
(-0.0604168 0.0946103 0)
(-0.0704913 0.0939639 0)
(-0.0801172 0.0911812 0)
(-0.0891252 0.0866108 0)
(-0.0973941 0.0805754 0)
(-0.104843 0.0733627 0)
(-0.111424 0.065221 0)
(-0.117114 0.056358 0)
(-0.121903 0.0469432 0)
(-0.125795 0.0371116 0)
(-0.128796 0.0269691 0)
(-0.130913 0.0165993 0)
(-0.132148 0.00606953 0)
(-0.132498 -0.00456095 0)
(-0.131955 -0.0152341 0)
(-0.130502 -0.0258853 0)
(-0.128116 -0.0364356 0)
(-0.124774 -0.0467846 0)
(-0.120449 -0.056803 0)
(-0.115124 -0.0663261 0)
(-0.108792 -0.0751489 0)
(-0.101463 -0.083023 0)
(-0.0931817 -0.0896561 0)
(-0.0840261 -0.0947155 0)
(-0.0741246 -0.0978361 0)
(-0.0636613 -0.0986336 0)
(-0.0528828 -0.0967233 0)
(-0.042099 -0.0917439 0)
(-0.0316773 -0.0833846 0)
(-0.0220265 -0.0714146 0)
(-0.0135669 -0.0557105 0)
(-0.00667681 -0.0362772 0)
(-0.00162817 -0.0132587 0)
(-0.0017435 0.014684 0)
(-0.007101 0.039805 0)
(-0.0143437 0.0606848 0)
(-0.0231693 0.0772901 0)
(-0.0331766 0.0897353 0)
(-0.0439331 0.0982604 0)
(-0.0550278 0.103199 0)
(-0.0660991 0.104948 0)
(-0.0768487 0.10393 0)
(-0.0870445 0.100573 0)
(-0.0965169 0.0952815 0)
(-0.105151 0.0884282 0)
(-0.112879 0.0803391 0)
(-0.119665 0.0712914 0)
(-0.125502 0.0615133 0)
(-0.130397 0.0511867 0)
(-0.134365 0.0404526 0)
(-0.137426 0.0294177 0)
(-0.139595 0.018162 0)
(-0.140881 0.00674683 0)
(-0.141284 -0.00477643 0)
(-0.140795 -0.0163581 0)
(-0.139393 -0.0279413 0)
(-0.137049 -0.0394529 0)
(-0.133727 -0.050795 0)
(-0.129388 -0.061836 0)
(-0.123997 -0.0724027 0)
(-0.117528 -0.0822738 0)
(-0.109975 -0.0911747 0)
(-0.10136 -0.0987767 0)
(-0.0917478 -0.104699 0)
(-0.0812578 -0.108518 0)
(-0.0700727 -0.109779 0)
(-0.0584497 -0.108023 0)
(-0.0467227 -0.102809 0)
(-0.0352984 -0.0937484 0)
(-0.0246392 -0.0805445 0)
(-0.0152302 -0.0630222 0)
(-0.00751819 -0.0411577 0)
(-0.00183587 -0.0150926 0)
(-0.00195417 0.0166024 0)
(-0.00794614 0.0448511 0)
(-0.0159989 0.0681712 0)
(-0.0257467 0.0865541 0)
(-0.0367198 0.100166 0)
(-0.0484237 0.109319 0)
(-0.0603978 0.114431 0)
(-0.0722464 0.115983 0)
(-0.0836521 0.114485 0)
(-0.0943763 0.110441 0)
(-0.104254 0.104322 0)
(-0.113183 0.0965559 0)
(-0.12111 0.0875103 0)
(-0.128021 0.0774935 0)
(-0.133928 0.0667542 0)
(-0.138857 0.0554856 0)
(-0.142841 0.0438327 0)
(-0.145912 0.0319002 0)
(-0.148098 0.0197616 0)
(-0.149415 0.00746892 0)
(-0.149868 -0.00493803 0)
(-0.149447 -0.0174216 0)
(-0.148126 -0.0299365 0)
(-0.145871 -0.0424192 0)
(-0.142631 -0.054778 0)
(-0.138352 -0.0668823 0)
(-0.13298 -0.0785533 0)
(-0.126464 -0.0895545 0)
(-0.118776 -0.0995857 0)
(-0.109913 -0.10828 0)
(-0.0999185 -0.115203 0)
(-0.0888941 -0.119864 0)
(-0.077016 -0.121729 0)
(-0.0645465 -0.120247 0)
(-0.0518417 -0.114881 0)
(-0.0393486 -0.105146 0)
(-0.0275894 -0.0906598 0)
(-0.0171242 -0.0711777 0)
(-0.00848273 -0.0466348 0)
(-0.00207447 -0.0171636 0)
(-0.00219457 0.0187532 0)
(-0.00890772 0.0504701 0)
(-0.0178679 0.0764529 0)
(-0.0286302 0.0967284 0)
(-0.0406425 0.111532 0)
(-0.0533385 0.121269 0)
(-0.0662038 0.126461 0)
(-0.078808 0.127696 0)
(-0.0908171 0.125585 0)
(-0.101992 0.120721 0)
(-0.112179 0.113655 0)
(-0.121293 0.104872 0)
(-0.129307 0.094787 0)
(-0.136231 0.0837408 0)
(-0.142102 0.0720011 0)
(-0.146968 0.0597707 0)
(-0.150885 0.0471958 0)
(-0.1539 0.0343759 0)
(-0.156055 0.0213746 0)
(-0.157375 0.00823047 0)
(-0.157869 -0.00503218 0)
(-0.157528 -0.018392 0)
(-0.156324 -0.0318195 0)
(-0.154212 -0.0452652 0)
(-0.151129 -0.0586481 0)
(-0.147004 -0.0718432 0)
(-0.141759 -0.0846692 0)
(-0.135317 -0.0968778 0)
(-0.12762 -0.108144 0)
(-0.118633 -0.118061 0)
(-0.108371 -0.126139 0)
(-0.0969092 -0.131811 0)
(-0.0844076 -0.134452 0)
(-0.0711265 -0.1334 0)
(-0.0574389 -0.128 0)
(-0.0438319 -0.11765 0)
(-0.0308918 -0.101853 0)
(-0.0192653 -0.080274 0)
(-0.00958173 -0.0527879 0)
(-0.002347 -0.0195076 0)
(-0.00246788 0.0211692 0)
(-0.00999723 0.0567319 0)
(-0.0199669 0.0856105 0)
(-0.0318327 0.107884 0)
(-0.0449444 0.12388 0)
(-0.0586541 0.134124 0)
(-0.0723893 0.139267 0)
(-0.0856866 0.14003 0)
(-0.0982014 0.137144 0)
(-0.109702 0.131309 0)
(-0.120053 0.123161 0)
(-0.1292 0.113252 0)
(-0.137145 0.102047 0)
(-0.143931 0.0899168 0)
(-0.149625 0.0771486 0)
(-0.154305 0.0639513 0)
(-0.158048 0.0504689 0)
(-0.160921 0.0367917 0)
(-0.162982 0.0229692 0)
(-0.164265 0.0090221 0)
(-0.164785 -0.00504495 0)
(-0.164536 -0.0192315 0)
(-0.163485 -0.0335287 0)
(-0.161579 -0.0479062 0)
(-0.158743 -0.0622989 0)
(-0.154884 -0.0765923 0)
(-0.149901 -0.0906083 0)
(-0.143687 -0.104091 0)
(-0.136147 -0.116694 0)
(-0.127208 -0.12797 0)
(-0.116845 -0.137371 0)
(-0.105098 -0.144248 0)
(-0.092097 -0.147868 0)
(-0.0780906 -0.147443 0)
(-0.0634596 -0.142175 0)
(-0.0487272 -0.13131 0)
(-0.0345471 -0.114206 0)
(-0.0216632 -0.0904068 0)
(-0.0108241 -0.0597002 0)
(-0.00265601 -0.0221636 0)
(-0.00277723 0.0238868 0)
(-0.0112253 0.0637099 0)
(-0.0223075 0.0957228 0)
(-0.0353564 0.120079 0)
(-0.0496048 0.137233 0)
(-0.0643133 0.147862 0)
(-0.0788497 0.152785 0)
(-0.0927225 0.152883 0)
(-0.105585 0.149031 0)
(-0.117225 0.142051 0)
(-0.127538 0.132675 0)
(-0.136508 0.121529 0)
(-0.144179 0.109127 0)
(-0.150633 0.0958713 0)
(-0.155973 0.0820628 0)
(-0.16031 0.0679136 0)
(-0.163745 0.0535606 0)
(-0.16637 0.0390805 0)
(-0.168256 0.0245038 0)
(-0.16945 0.00982927 0)
(-0.169975 -0.00496308 0)
(-0.169825 -0.0198983 0)
(-0.168965 -0.0349933 0)
(-0.167335 -0.0502422 0)
(-0.164846 -0.0656017 0)
(-0.161387 -0.0809743 0)
(-0.156829 -0.0961913 0)
(-0.151032 -0.110995 0)
(-0.14386 -0.125024 0)
(-0.135196 -0.137794 0)
(-0.124961 -0.148696 0)
(-0.113148 -0.156993 0)
(-0.0998441 -0.161833 0)
(-0.085268 -0.162281 0)
(-0.0697955 -0.157363 0)
(-0.0539775 -0.146139 0)
(-0.0385342 -0.12778 0)
(-0.0243172 -0.101664 0)
(-0.0122149 -0.067456 0)
(-0.00300319 -0.0251738 0)
(-0.0031254 0.0269457 0)
(-0.0126006 0.0714791 0)
(-0.0248947 0.106861 0)
(-0.039187 0.133352 0)
(-0.0545726 0.151578 0)
(-0.070212 0.162417 0)
(-0.0854151 0.166895 0)
(-0.0996717 0.16609 0)
(-0.112648 0.161049 0)
(-0.124165 0.15273 0)
(-0.134166 0.141975 0)
(-0.142686 0.129485 0)
(-0.149821 0.115822 0)
(-0.1557 0.101416 0)
(-0.160469 0.0865784 0)
(-0.164272 0.071518 0)
(-0.167241 0.0563594 0)
(-0.169489 0.0411599 0)
(-0.171103 0.0259266 0)
(-0.172145 0.0106311 0)
(-0.172642 -0.00477536 0)
(-0.172592 -0.0203481 0)
(-0.171961 -0.0361347 0)
(-0.170681 -0.0521594 0)
(-0.168651 -0.0684069 0)
(-0.165742 -0.0848042 0)
(-0.161798 -0.1012 0)
(-0.156644 -0.117344 0)
(-0.150101 -0.132864 0)
(-0.141996 -0.147249 0)
(-0.132192 -0.159831 0)
(-0.120615 -0.169781 0)
(-0.107293 -0.176118 0)
(-0.0923925 -0.177735 0)
(-0.0762659 -0.173454 0)
(-0.0594752 -0.162098 0)
(-0.0428015 -0.1426 0)
(-0.0272102 -0.114115 0)
(-0.0137524 -0.0761359 0)
(-0.00338879 -0.0285824 0)
(-0.00351456 0.0303894 0)
(-0.0141285 0.0801129 0)
(-0.0277222 0.11908 0)
(-0.0432854 0.147709 0)
(-0.0597534 0.166852 0)
(-0.0761804 0.177653 0)
(-0.0918266 0.181399 0)
(-0.106179 0.179406 0)
(-0.118939 0.17292 0)
(-0.12998 0.163057 0)
(-0.139312 0.150771 0)
(-0.147038 0.136842 0)
(-0.153314 0.121875 0)
(-0.158325 0.106322 0)
(-0.162264 0.0904977 0)
(-0.165312 0.0745997 0)
(-0.167629 0.0587338 0)
(-0.169351 0.0429327 0)
(-0.170582 0.0271744 0)
(-0.171393 0.0113993 0)
(-0.171821 -0.00447442 0)
(-0.171869 -0.0205365 0)
(-0.171501 -0.0368695 0)
(-0.170644 -0.0535333 0)
(-0.169191 -0.0705473 0)
(-0.166995 -0.0878705 0)
(-0.163877 -0.105379 0)
(-0.159627 -0.122838 0)
(-0.15402 -0.139881 0)
(-0.146824 -0.155975 0)
(-0.137832 -0.170402 0)
(-0.126888 -0.182245 0)
(-0.113938 -0.190384 0)
(-0.0990735 -0.193523 0)
(-0.0825921 -0.190237 0)
(-0.0650431 -0.179066 0)
(-0.0472526 -0.158634 0)
(-0.0303014 -0.1278 0)
(-0.0154255 -0.0858101 0)
(-0.00381083 -0.0324342 0)
(-0.00394562 0.0342639 0)
(-0.0158082 0.089679 0)
(-0.030766 0.13241 0)
(-0.0475757 0.163101 0)
(-0.0649898 0.182918 0)
(-0.0819574 0.193345 0)
(-0.0977053 0.196 0)
(-0.111746 0.192484 0)
(-0.12384 0.184272 0)
(-0.133947 0.172654 0)
(-0.142162 0.158699 0)
(-0.148671 0.14326 0)
(-0.153705 0.126981 0)
(-0.157509 0.110322 0)
(-0.160322 0.0935923 0)
(-0.162364 0.0769701 0)
(-0.163824 0.0605347 0)
(-0.164855 0.0442876 0)
(-0.165577 0.0281733 0)
(-0.166071 0.0120973 0)
(-0.166382 -0.00405891 0)
(-0.166514 -0.0204224 0)
(-0.166437 -0.0371145 0)
(-0.166076 -0.0542352 0)
(-0.165317 -0.0718445 0)
(-0.164004 -0.0899416 0)
(-0.161937 -0.108439 0)
(-0.158879 -0.127135 0)
(-0.154557 -0.145676 0)
(-0.148681 -0.163527 0)
(-0.140963 -0.179935 0)
(-0.131155 -0.193899 0)
(-0.119092 -0.204164 0)
(-0.10476 -0.209224 0)
(-0.0883662 -0.207377 0)
(-0.0704084 -0.196815 0)
(-0.0517293 -0.175771 0)
(-0.0335158 -0.142708 0)
(-0.0172078 -0.096529 0)
(-0.00426383 -0.0367725 0)
(-0.00441717 0.0386181 0)
(-0.0176284 0.100232 0)
(-0.0339739 0.146838 0)
(-0.0519257 0.179408 0)
(-0.0700341 0.199533 0)
(-0.087154 0.209146 0)
(-0.102511 0.210272 0)
(-0.11568 0.204852 0)
(-0.126526 0.194621 0)
(-0.135122 0.181047 0)
(-0.141676 0.165315 0)
(-0.146472 0.148338 0)
(-0.149823 0.130784 0)
(-0.152039 0.113112 0)
(-0.153405 0.0956078 0)
(-0.154174 0.078422 0)
(-0.154558 0.0615987 0)
(-0.154726 0.0451026 0)
(-0.154808 0.0288404 0)
(-0.154892 0.0126798 0)
(-0.155028 -0.00353578 0)
(-0.155226 -0.0199727 0)
(-0.155458 -0.0367931 0)
(-0.155654 -0.0541401 0)
(-0.1557 -0.0721192 0)
(-0.155436 -0.0907772 0)
(-0.154651 -0.110075 0)
(-0.153085 -0.129853 0)
(-0.150429 -0.149796 0)
(-0.146333 -0.169383 0)
(-0.140431 -0.187847 0)
(-0.132363 -0.204126 0)
(-0.121839 -0.216834 0)
(-0.108698 -0.224255 0)
(-0.0930098 -0.224373 0)
(-0.0751681 -0.214969 0)
(-0.0559853 -0.193783 0)
(-0.036728 -0.158756 0)
(-0.0190509 -0.10831 0)
(-0.00473685 -0.0416357 0)
(-0.00492347 0.0435014 0)
(-0.0195593 0.111802 0)
(-0.0372477 0.162285 0)
(-0.0561171 0.196398 0)
(-0.0745047 0.216316 0)
(-0.0912015 0.22455 0)
(-0.105483 0.223632 0)
(-0.117046 0.215894 0)
(-0.125908 0.203354 0)
(-0.132294 0.187659 0)
(-0.13655 0.170095 0)
(-0.139073 0.151616 0)
(-0.140261 0.132893 0)
(-0.140485 0.114362 0)
(-0.140071 0.0962739 0)
(-0.139298 0.0787384 0)
(-0.138391 0.0617564 0)
(-0.137528 0.0452502 0)
(-0.136842 0.0290865 0)
(-0.136423 0.0130938 0)
(-0.136325 -0.00292242 0)
(-0.136562 -0.0191673 0)
(-0.137111 -0.0358436 0)
(-0.137911 -0.0531383 0)