/*--------------------------------*- C++ -*----------------------------------*\
| =========                 |                                                 |
| \\      /  F ield         | OpenFOAM: The Open Source CFD Toolbox           |
|  \\    /   O peration     | Version:  4.1                                   |
|   \\  /    A nd           | Web:      www.OpenFOAM.org                      |
|    \\/     M anipulation  |                                                 |
\*---------------------------------------------------------------------------*/
FoamFile
{
    version     2.0;
    format      ascii;
    class       volVectorField;
    location    "0.076";
    object      U;
}
// * * * * * * * * * * * * * * * * * * * * * * * * * * * * * * * * * * * * * //

dimensions      [0 1 -1 0 0 0 0];

internalField   nonuniform List<vector> 
100
(
(-0.00204334 0.00158914 0)
(-0.00527466 0.00169194 0)
(-0.0119061 0.00173252 0)
(-0.0149425 0.000671184 0)
(-0.0180552 0.000248012 0)
(-0.0184139 -0.00116771 0)
(-0.0164714 -0.00171206 0)
(-0.0135557 -0.00305298 0)
(-0.00640489 -0.00312454 0)
(-0.00267883 -0.00296709 0)
(-0.00323689 0.0057753 0)
(-0.00986116 0.00807878 0)
(-0.0208765 0.00823028 0)
(-0.0263698 0.00523144 0)
(-0.0312944 0.00363253 0)
(-0.0318426 -0.000714974 0)
(-0.0286502 -0.00275775 0)
(-0.0233435 -0.00725471 0)
(-0.0116121 -0.00755069 0)
(-0.00401198 -0.00608508 0)
(-0.00383814 0.014718 0)
(-0.0117287 0.0191341 0)
(-0.0244332 0.0185255 0)
(-0.0308858 0.0106483 0)
(-0.0368129 0.00602518 0)
(-0.0376834 -0.00440874 0)
(-0.0345848 -0.0100526 0)
(-0.0285451 -0.0207302 0)
(-0.014959 -0.0225856 0)
(-0.00541186 -0.0189456 0)
(-0.00599828 0.0211803 0)
(-0.0166314 0.0283887 0)
(-0.0329971 0.0276312 0)
(-0.041471 0.0173133 0)
(-0.0488812 0.0110288 0)
(-0.0504976 -0.00308932 0)
(-0.0474598 -0.0110706 0)
(-0.0400931 -0.0267673 0)
(-0.0226554 -0.0298767 0)
(-0.00858332 -0.0258858 0)
(-0.00706761 0.0376392 0)
(-0.0194835 0.0458524 0)
(-0.0382899 0.0439498 0)
(-0.0482354 0.0257935 0)
(-0.0574718 0.0154896 0)
(-0.0602496 -0.00694282 0)
(-0.0589551 -0.0203929 0)
(-0.0516283 -0.0469388 0)
(-0.0322216 -0.0546385 0)
(-0.0130734 -0.051298 0)
(-0.0139061 0.0471455 0)
(-0.0329782 0.058951 0)
(-0.0570156 0.056626 0)
(-0.0704332 0.0359683 0)
(-0.0812143 0.0240125 0)
(-0.0859979 -0.00175726 0)
(-0.087283 -0.0181288 0)
(-0.0796866 -0.0530895 0)
(-0.0562629 -0.0666104 0)
(-0.0236905 -0.0698843 0)
(-0.0157843 0.0855341 0)
(-0.0379699 0.0883427 0)
(-0.0641105 0.0827316 0)
(-0.0786648 0.0486232 0)
(-0.0909535 0.0318579 0)
(-0.0967217 -0.00294081 0)
(-0.103352 -0.0265907 0)
(-0.0987851 -0.0808262 0)
(-0.0801936 -0.111793 0)
(-0.03553 -0.134297 0)
(-0.0402203 0.0990173 0)
(-0.0749176 0.105788 0)
(-0.0902539 0.0976041 0)
(-0.100546 0.06183 0)
(-0.104929 0.0436851 0)
(-0.108178 0.0102965 0)
(-0.120825 -0.0132167 0)
(-0.116467 -0.0753827 0)
(-0.110211 -0.125752 0)
(-0.0490846 -0.182958 0)
(-0.0351737 0.203642 0)
(-0.0346302 0.136608 0)
(-0.0186872 0.1115 0)
(-0.000961288 0.0608719 0)
(0.0102893 0.0410388 0)
(0.0277302 0.00946287 0)
(0.0199412 -0.0175597 0)
(0.0307678 -0.0966681 0)
(-0.00734407 -0.180541 0)
(-0.000281149 -0.302297 0)
(0.150047 0.162788 0)
(0.232304 0.0867747 0)
(0.362939 0.065654 0)
(0.415486 0.0322244 0)
(0.452903 0.0182949 0)
(0.477802 0.000688949 0)
(0.461111 -0.0103043 0)
(0.453132 -0.0445849 0)
(0.316939 -0.082439 0)
(0.193713 -0.17765 0)
)
;

boundaryField
{
    movingWall
    {
        type            fixedValue;
        value           uniform (1 0 0);
    }
    fixedWalls
    {
        type            noSlip;
    }
    frontAndBack
    {
        type            empty;
    }
}


// ************************************************************************* //
