/*--------------------------------*- C++ -*----------------------------------*\
| =========                 |                                                 |
| \\      /  F ield         | OpenFOAM: The Open Source CFD Toolbox           |
|  \\    /   O peration     | Version:  4.1                                   |
|   \\  /    A nd           | Web:      www.OpenFOAM.org                      |
|    \\/     M anipulation  |                                                 |
\*---------------------------------------------------------------------------*/
FoamFile
{
    version     2.0;
    format      ascii;
    class       volVectorField;
    location    "0.0243";
    object      U;
}
// * * * * * * * * * * * * * * * * * * * * * * * * * * * * * * * * * * * * * //

dimensions      [0 1 -1 0 0 0 0];

internalField   nonuniform List<vector> 
441
(
(0.0033038 -0.0047188 0)
(0.00796027 -0.00284321 0)
(-0.000710942 -2.32397e-165 0)
(0.00154243 -2.37275e-266 0)
(-0.0101014 -0.00617026 0)
(-0.00154243 -2.52922e-232 0)
(-1.09267e-202 -3.73154e-203 0)
(-9.32688e-204 -4.58401e-228 0)
(-1.32645e-212 -1.89367e-213 0)
(-0.00468131 7.14393e-266 0)
(-0.0551959 0.0187266 0)
(-0.0705814 0.0102205 0)
(-0.0814671 0.00507438 0)
(-0.0753188 0.00114158 0)
(-0.066871 -0.000442194 0)
(-0.0508794 -0.00172705 0)
(-0.0358621 -0.00159697 0)
(-0.0196636 -0.00174901 0)
(-0.00707838 -0.000356444 0)
(-0.000518597 0.000284927 0)
(0.00326102 0.00209889 0)
(0.00288508 -0.00632457 0)
(-0.0040437 0.00687984 0)
(-0.0293919 0.00761526 0)
(-0.0571284 0.0113423 0)
(-0.0956276 0.00853299 0)
(-0.128044 -0.00555106 0)
(-0.156293 -0.000744789 0)
(-0.181506 0.000995875 0)
(-0.202589 0.00945619 0)
(-0.224382 0.0488072 0)
(-0.239507 0.0455759 0)
(-0.235284 0.016329 0)
(-0.228211 -0.000721206 0)
(-0.203946 -0.0162575 0)
(-0.175755 -0.0240236 0)
(-0.136735 -0.0302217 0)
(-0.0989093 -0.0294315 0)
(-0.0600201 -0.0280866 0)
(-0.0287729 -0.018429 0)
(-0.00875483 -0.0113549 0)
(0.00301553 0.000834983 0)
(0.0060065 -0.00419738 0)
(-0.00708588 0.0290317 0)
(-0.051413 0.0516242 0)
(-0.105889 0.064306 0)
(-0.167326 0.0637692 0)
(-0.228185 0.0573037 0)
(-0.288988 0.0514839 0)
(-0.332854 0.0447264 0)
(-0.375185 0.0411369 0)
(-0.391441 0.0405867 0)
(-0.382886 0.0303891 0)
(-0.369103 -7.30187e-05 0)
(-0.347242 -0.0257193 0)
(-0.309288 -0.051135 0)
(-0.264796 -0.0668686 0)
(-0.207334 -0.0787495 0)
(-0.151171 -0.0773142 0)
(-0.0932942 -0.0722397 0)
(-0.046853 -0.050628 0)
(-0.0146763 -0.0318079 0)
(0.00407677 -0.00309665 0)
(0.00604568 -0.00539468 0)
(-0.012163 0.0658505 0)
(-0.0791221 0.106572 0)
(-0.152628 0.129176 0)
(-0.234374 0.131108 0)
(-0.311784 0.118449 0)
(-0.383064 0.10503 0)
(-0.439819 0.0878129 0)
(-0.483312 0.0696193 0)
(-0.504868 0.0542893 0)
(-0.503619 0.022952 0)
(-0.484494 -0.0202355 0)
(-0.453628 -0.0606763 0)
(-0.402864 -0.0995962 0)
(-0.343937 -0.125811 0)
(-0.269233 -0.145007 0)
(-0.196402 -0.143001 0)
(-0.120664 -0.133778 0)
(-0.0606231 -0.0963633 0)
(-0.0173672 -0.0635299 0)
(0.00606877 -0.00943713 0)
(6.03955e-165 0.00151142 0)
(-0.0168929 0.113808 0)
(-0.107615 0.191356 0)
(-0.1942 0.218407 0)
(-0.292948 0.222081 0)
(-0.383204 0.204582 0)
(-0.46806 0.178621 0)
(-0.534047 0.144259 0)
(-0.585187 0.105749 0)
(-0.609864 0.061521 0)
(-0.61081 0.0103837 0)
(-0.590412 -0.0497927 0)
(-0.553436 -0.1067 0)
(-0.492869 -0.160981 0)
(-0.421388 -0.199533 0)
(-0.329454 -0.226817 0)
(-0.240337 -0.224568 0)
(-0.144175 -0.208786 0)
(-0.0711154 -0.152418 0)
(-0.0142599 -0.0991336 0)
(0.0123532 -0.0134794 0)
(-5.04863e-266 0.00484808 0)
(-0.0708768 0.177661 0)
(-0.145598 0.282243 0)
(-0.245298 0.316173 0)
(-0.347378 0.32009 0)
(-0.447614 0.294597 0)
(-0.538669 0.256399 0)
(-0.6137 0.205209 0)
(-0.670774 0.146053 0)
(-0.703298 0.0792594 0)
(-0.712269 0.00365415 0)
(-0.694423 -0.0784388 0)
(-0.656176 -0.158064 0)
(-0.588194 -0.232858 0)
(-0.505687 -0.288813 0)
(-0.396131 -0.32789 0)
(-0.28898 -0.327361 0)
(-0.169778 -0.305515 0)
(-0.0811716 -0.22469 0)
(-0.00733727 -0.149835 0)
(0.0158488 -0.0104921 0)
(-0.0193923 0.0756808 0)
(-0.0962872 0.256095 0)
(-0.180668 0.366336 0)
(-0.286776 0.41867 0)
(-0.399115 0.42392 0)
(-0.508588 0.39481 0)
(-0.610138 0.344236 0)
(-0.695082 0.275763 0)
(-0.762329 0.195269 0)
(-0.804365 0.102898 0)
(-0.82231 0.00192383 0)
(-0.810268 -0.106049 0)
(-0.773884 -0.212093 0)
(-0.701259 -0.311991 0)
(-0.609477 -0.390243 0)
(-0.480701 -0.444608 0)
(-0.354398 -0.448851 0)
(-0.20428 -0.418208 0)
(-0.101877 -0.312102 0)
(0.00498342 -0.197602 0)
(5.34823e-266 -0.00396221 0)
(-0.0137581 0.12281 0)
(-0.088591 0.339986 0)
(-0.194467 0.47346 0)
(-0.315017 0.535498 0)
(-0.440879 0.542392 0)
(-0.562703 0.506138 0)
(-0.675414 0.443387 0)
(-0.772831 0.357505 0)
(-0.852268 0.25577 0)
(-0.907893 0.138861 0)
(-0.939144 0.00983379 0)
(-0.937882 -0.127728 0)
(-0.908582 -0.266774 0)
(-0.835821 -0.398918 0)
(-0.737212 -0.508765 0)
(-0.589898 -0.585911 0)
(-0.440174 -0.602223 0)
(-0.257052 -0.562865 0)
(-0.129555 -0.429934 0)
(-0.000927335 -0.259959 0)
(1.81098e-24 -1.71791e-24 0)
(-0.0117666 0.175104 0)
(-0.0911161 0.435112 0)
(-0.211966 0.591593 0)
(-0.345711 0.663604 0)
(-0.485999 0.670766 0)
(-0.620688 0.628213 0)
(-0.746585 0.553887 0)
(-0.857984 0.451902 0)
(-0.952317 0.330317 0)
(-1.02453 0.189415 0)
(-1.07269 0.032428 0)
(-1.08764 -0.13693 0)
(-1.07128 -0.31303 0)
(-1.00456 -0.48411 0)
(-0.903633 -0.634225 0)
(-0.738429 -0.743422 0)
(-0.562398 -0.778352 0)
(-0.335365 -0.732076 0)
(-0.173504 -0.562243 0)
(-0.00320229 -0.332503 0)
(7.38937e-77 -4.52746e-25 0)
(-0.0103182 0.226548 0)
(-0.091954 0.541845 0)
(-0.2255 0.7291 0)
(-0.371619 0.810377 0)
(-0.525561 0.818204 0)
(-0.673328 0.767089 0)
(-0.812243 0.681312 0)
(-0.938687 0.563234 0)
(-1.04926 0.422716 0)
(-1.14121 0.25884 0)
(-1.2106 0.0731699 0)
(-1.24819 -0.130094 0)
(-1.25253 -0.349635 0)
(-1.20054 -0.568642 0)
(-1.10453 -0.774429 0)
(-0.925577 -0.931333 0)
(-0.72039 -1.00389 0)
(-0.440257 -0.959011 0)
(-0.229851 -0.757827 0)
(-0.00496441 -0.444866 0)
(2.04398e-164 -1.84734e-77 0)
(-0.0110971 0.274425 0)
(-0.0998922 0.648652 0)
(-0.247885 0.869369 0)
(-0.40719 0.96176 0)
(-0.574117 0.971238 0)
(-0.734037 0.913346 0)
(-0.884355 0.818597 0)
(-1.02482 0.68793 0)
(-1.15079 0.532736 0)
(-1.26358 0.350269 0)
(-1.35651 0.139949 0)
(-1.42285 -0.0952238 0)
(-1.45579 -0.359248 0)
(-1.43031 -0.632704 0)
(-1.35047 -0.906558 0)
(-1.16802 -1.12977 0)
(-0.936993 -1.25913 0)
(-0.599053 -1.22753 0)
(-0.32672 -0.988037 0)
(-0.0589577 -0.571271 0)
(1.23658e-265 0.00983502 0)
(-0.0129438 0.338715 0)
(-0.108317 0.780854 0)
(-0.269239 1.03818 0)
(-0.439433 1.13759 0)
(-0.616041 1.14656 0)
(-0.784865 1.07766 0)
(-0.942693 0.973081 0)
(-1.09379 0.829582 0)
(-1.23181 0.661853 0)
(-1.36346 0.464099 0)
(-1.47956 0.232346 0)
(-1.57741 -0.0318094 0)
(-1.64548 -0.342434 0)
(-1.65763 -0.676154 0)
(-1.60857 -1.03687 0)
(-1.43793 -1.35003 0)
(-1.18954 -1.57254 0)
(-0.786141 -1.57957 0)
(-0.421583 -1.29396 0)
(-0.056704 -0.786203 0)
(0.0393401 -0.0572216 0)
(-0.0179016 0.391477 0)
(-0.126974 0.902057 0)
(-0.307467 1.19772 0)
(-0.490402 1.3054 0)
(-0.673183 1.315 0)
(-0.846014 1.23759 0)
(-1.00268 1.12669 0)
(-1.15633 0.975634 0)
(-1.29631 0.802152 0)
(-1.43899 0.59751 0)
(-1.57014 0.354269 0)
(-1.69704 0.0708566 0)
(-1.80005 -0.277471 0)
(-1.86075 -0.669339 0)
(-1.85762 -1.12274 0)
(-1.72472 -1.55032 0)
(-1.48507 -1.90566 0)
(-1.01568 -2.00141 0)
(-0.566743 -1.71058 0)
(0.0331575 -1.03683 0)
(1.90286e-231 -0.00983502 0)
(-0.024484 0.486516 0)
(-0.146581 1.07356 0)
(-0.342899 1.4055 0)
(-0.532786 1.50449 0)
(-0.713466 1.50532 0)
(-0.88099 1.40749 0)
(-1.02537 1.28526 0)
(-1.16911 1.12314 0)
(-1.29683 0.944972 0)
(-1.43486 0.737537 0)
(-1.56508 0.489622 0)
(-1.70593 0.197356 0)
(-1.83415 -0.180265 0)
(-1.94201 -0.62011 0)
(-1.99991 -1.17453 0)
(-1.93946 -1.72741 0)
(-1.76108 -2.28351 0)
(-1.29945 -2.51306 0)
(-0.786298 -2.33952 0)
(-0.00379765 -1.38258 0)
(4.85226e-202 4.0406e-184 0)
(-0.0423232 0.555272 0)
(-0.194213 1.21435 0)
(-0.41618 1.57978 0)
(-0.612233 1.67025 0)
(-0.775085 1.66125 0)
(-0.921137 1.54574 0)
(-1.02864 1.41411 0)
(-1.13989 1.24536 0)
(-1.22797 1.06776 0)
(-1.33614 0.865679 0)
(-1.4361 0.625578 0)
(-1.5673 0.341196 0)
(-1.69421 -0.0399624 0)
(-1.84342 -0.501183 0)
(-1.95844 -1.12017 0)
(-2.01938 -1.78768 0)
(-1.9489 -2.53403 0)
(-1.60795 -2.98486 0)
(-1.08099 -2.98671 0)
(-0.00749506 -1.84771 0)
(1.61624e-183 2.83772e-184 0)
(-0.0622248 0.730651 0)
(-0.240218 1.45171 0)
(-0.471652 1.83259 0)
(-0.655115 1.86456 0)
(-0.778511 1.82096 0)
(-0.880032 1.66139 0)
(-0.926977 1.50777 0)
(-0.979508 1.32269 0)
(-1.0005 1.14228 0)
(-1.0472 0.94601 0)
(-1.08343 0.719426 0)
(-1.16542 0.456158 0)
(-1.2537 0.0922243 0)
(-1.40317 -0.354507 0)
(-1.55984 -1.00413 0)
(-1.74086 -1.73544 0)
(-1.8629 -2.70361 0)
(-1.77418 -3.38943 0)
(-1.47801 -3.96137 0)
(-0.431654 -2.50545 0)
(4.03356e-254 -4.0406e-184 0)
(-0.12753 0.843082 0)
(-0.373594 1.6104 0)
(-0.602871 1.98879 0)
(-0.748627 1.96695 0)
(-0.770112 1.88478 0)
(-0.779178 1.68882 0)
(-0.708449 1.51398 0)
(-0.659217 1.31733 0)
(-0.569981 1.13623 0)
(-0.521602 0.95002 0)
(-0.458577 0.744599 0)
(-0.463721 0.515662 0)
(-0.473977 0.199323 0)
(-0.603454 -0.187723 0)
(-0.751785 -0.776682 0)
(-1.09224 -1.47485 0)
(-1.38254 -2.47814 0)
(-1.88139 -3.37041 0)
(-1.84321 -4.25238 0)
(-1.99069 -3.39751 0)
(-2.37953e-264 -0.203238 0)
(-0.180637 1.25245 0)
(-0.452851 1.93112 0)
(-0.60369 2.22944 0)
(-0.640301 2.03199 0)
(-0.503915 1.86525 0)
(-0.368439 1.59958 0)
(-0.145375 1.39451 0)
(0.0375413 1.1845 0)
(0.257283 1.00666 0)
(0.420536 0.835995 0)
(0.595996 0.660093 0)
(0.689449 0.475123 0)
(0.776587 0.226865 0)
(0.722701 -0.0690355 0)
(0.631613 -0.52707 0)
(0.288443 -1.08868 0)
(-0.113564 -1.943 0)
(-0.854552 -2.8862 0)
(-1.37239 -3.93636 0)
(-1.88067 -4.21961 0)
(-0.812953 -2.21257 0)
(-0.397813 1.44174 0)
(-0.728965 2.00457 0)
(-0.554835 2.17018 0)
(-0.328717 1.85061 0)
(0.150206 1.61432 0)
(0.521559 1.32317 0)
(0.970781 1.11061 0)
(1.31672 0.913321 0)
(1.6802 0.755348 0)
(1.95165 0.614107 0)
(2.22444 0.477144 0)
(2.39112 0.342489 0)
(2.5543 0.167666 0)
(2.54887 -0.0284732 0)
(2.5284 -0.339631 0)
(2.19499 -0.706517 0)
(1.83088 -1.3322 0)
(0.940157 -2.07661 0)
(0.174887 -3.22288 0)
(-0.82418 -3.88354 0)
(-0.689705 -2.93045 0)
(-0.251694 2.44102 0)
(-0.0818992 2.08277 0)
(0.707208 1.88024 0)
(1.3349 1.32033 0)
(2.10814 1.03684 0)
(2.67383 0.77415 0)
(3.25065 0.607296 0)
(3.67827 0.47264 0)
(4.0903 0.373345 0)
(4.39078 0.292086 0)
(4.67811 0.218752 0)
(4.855 0.149683 0)
(5.0256 0.0642472 0)
(5.03703 -0.0317342 0)
(5.04303 -0.183705 0)
(4.76201 -0.369042 0)
(4.46454 -0.716002 0)
(3.62226 -1.1946 0)
(2.73281 -2.2325 0)
(1.03218 -3.30969 0)
(-0.0410559 -3.8007 0)
(1.67106 1.67341 0)
(2.7222 0.979979 0)
(4.57599 0.752307 0)
(5.41601 0.424059 0)
(6.26979 0.282685 0)
(6.7533 0.171216 0)
(7.19606 0.112738 0)
(7.47752 0.0722007 0)
(7.73262 0.0472062 0)
(7.89742 0.0294978 0)
(8.05151 0.0153182 0)
(8.12855 0.00281424 0)
(8.20643 -0.0134278 0)
(8.17457 -0.0308449 0)
(8.15384 -0.0648905 0)
(7.918 -0.100281 0)
(7.70813 -0.195196 0)
(6.98883 -0.295279 0)
(6.26813 -0.634701 0)
(4.05222 -1.00949 0)
(2.0173 -1.8339 0)
)
;

boundaryField
{
    movingWall
    {
        type            fixedValue;
        value           uniform (10 0 0);
    }
    fixedWalls
    {
        type            noSlip;
    }
    frontAndBack
    {
        type            empty;
    }
}


// ************************************************************************* //
