/*--------------------------------*- C++ -*----------------------------------*\
| =========                 |                                                 |
| \\      /  F ield         | OpenFOAM: The Open Source CFD Toolbox           |
|  \\    /   O peration     | Version:  4.1                                   |
|   \\  /    A nd           | Web:      www.OpenFOAM.org                      |
|    \\/     M anipulation  |                                                 |
\*---------------------------------------------------------------------------*/
FoamFile
{
    version     2.0;
    format      ascii;
    class       volScalarField;
    location    "0.00063";
    object      p;
}
// * * * * * * * * * * * * * * * * * * * * * * * * * * * * * * * * * * * * * //

dimensions      [1 -1 -2 0 0 0 0];

internalField   nonuniform List<scalar> 
1681
(
100000
100000
100000
100000
100000
100000
100000
100001
100001
100001
100001
100002
100002
100002
100003
100003
100004
100004
100004
100005
100005
100006
100006
100007
100007
100007
100008
100008
100009
100009
100009
100010
100010
100010
100010
100010
100011
100011
100011
100011
100011
100000
100000
100000
100000
100000
100000
100000
100001
100001
100001
100001
100002
100002
100002
100003
100003
100004
100004
100004
100005
100005
100006
100006
100007
100007
100007
100008
100008
100009
100009
100009
100010
100010
100010
100010
100010
100011
100011
100011
100011
100011
100000
100000
100000
100000
100000
100000
100000
100001
100001
100001
100001
100002
100002
100002
100003
100003
100004
100004
100004
100005
100005
100006
100006
100007
100007
100007
100008
100008
100009
100009
100009
100010
100010
100010
100010
100010
100011
100011
100011
100011
100011
99999.9
99999.9
99999.9
100000
100000
100000
100000
100001
100001
100001
100001
100002
100002
100002
100003
100003
100004
100004
100004
100005
100005
100006
100006
100007
100007
100007
100008
100008
100009
100009
100009
100010
100010
100010
100010
100011
100011
100011
100011
100011
100011
99999.9
99999.8
99999.8
99999.8
99999.9
100000
100000
100000
100001
100001
100001
100002
100002
100002
100003
100003
100004
100004
100004
100005
100005
100006
100006
100007
100007
100008
100008
100008
100009
100009
100009
100010
100010
100010
100010
100011
100011
100011
100011
100011
100011
99999.7
99999.6
99999.6
99999.7
99999.8
99999.9
100000
100000
100001
100001
100001
100001
100002
100002
100003
100003
100003
100004
100004
100005
100005
100006
100006
100007
100007
100008
100008
100008
100009
100009
100010
100010
100010
100010
100011
100011
100011
100011
100011
100011
100011
99999.4
99999.4
99999.4
99999.4
99999.5
99999.7
99999.9
100000
100000
100001
100001
100001
100002
100002
100002
100003
100003
100004
100004
100005
100005
100006
100006
100007
100007
100008
100008
100009
100009
100009
100010
100010
100010
100011
100011
100011
100011
100011
100011
100011
100011
99999.1
99999.1
99999.1
99999.2
99999.3
99999.4
99999.6
99999.8
100000
100000
100001
100001
100002
100002
100002
100003
100003
100004
100004
100005
100005
100006
100006
100007
100007
100008
100008
100009
100009
100010
100010
100010
100011
100011
100011
100011
100011
100012
100012
100012
100012
99998.7
99998.7
99998.8
99998.8
99999
99999.1
99999.3
99999.6
99999.9
100000
100001
100001
100001
100002
100002
100003
100003
100004
100004
100005
100005
100006
100006
100007
100007
100008
100008
100009
100009
100010
100010
100010
100011
100011
100011
100012
100012
100012
100012
100012
100012
99998.2
99998.3
99998.4
99998.5
99998.6
99998.8
99999
99999.3
99999.6
99999.9
100000
100001
100001
100002
100002
100003
100003
100004
100004
100005
100005
100006
100006
100007
100007
100008
100009
100009
100009
100010
100010
100011
100011
100011
100012
100012
100012
100012
100012
100012
100012
99997.8
99997.9
99998
99998.1
99998.2
99998.4
99998.6
99998.9
99999.2
99999.6
100000
100000
100001
100001
100002
100002
100003
100004
100004
100005
100005
100006
100006
100007
100008
100008
100009
100009
100010
100010
100011
100011
100011
100012
100012
100012
100012
100013
100013
100013
100013
99997.6
99997.5
99997.5
99997.6
99997.7
99997.9
99998.2
99998.5
99998.8
99999.2
99999.6
100000
100001
100001
100002
100002
100003
100003
100004
100005
100005
100006
100007
100007
100008
100008
100009
100009
100010
100010
100011
100011
100012
100012
100012
100013
100013
100013
100013
100013
100013
99997.1
99997
99997
99997.1
99997.2
99997.5
99997.7
99998.1
99998.4
99998.8
99999.3
99999.8
100000
100001
100001
100002
100003
100003
100004
100005
100005
100006
100007
100007
100008
100009
100009
100010
100010
100011
100011
100012
100012
100013
100013
100013
100013
100014
100014
100014
100014
99996.2
99996.3
99996.3
99996.5
99996.7
99996.9
99997.2
99997.5
99997.9
99998.4
99998.9
99999.4
100000
100001
100001
100002
100002
100003
100004
100005
100005
100006
100007
100007
100008
100009
100009
100010
100011
100011
100012
100012
100013
100013
100013
100014
100014
100014
100014
100014
100014
99995.2
99995.4
99995.6
99995.8
99996
99996.3
99996.6
99997
99997.4
99997.9
99998.4
99999
99999.6
100000
100001
100002
100002
100003
100004
100004
100005
100006
100007
100008
100008
100009
100010
100010
100011
100012
100012
100013
100013
100014
100014
100014
100015
100015
100015
100015
100015
99994.4
99994.7
99994.8
99995.1
99995.3
99995.6
99996
99996.4
99996.9
99997.4
99997.9
99998.5
99999.2
99999.9
100001
100001
100002
100003
100004
100004
100005
100006
100007
100008
100008
100009
100010
100011
100011
100012
100013
100013
100014
100014
100015
100015
100015
100015
100016
100016
100016
99993.8
99993.9
99994.1
99994.3
99994.6
99994.9
99995.3
99995.7
99996.2
99996.8
99997.4
99998
99998.7
99999.5
100000
100001
100002
100003
100003
100004
100005
100006
100007
100008
100009
100009
100010
100011
100012
100012
100013
100014
100014
100015
100015
100016
100016
100016
100016
100016
100016
99993.1
99993.1
99993.3
99993.5
99993.8
99994.1
99994.5
99995
99995.6
99996.2
99996.8
99997.5
99998.2
99999
99999.8
100001
100002
100002
100003
100004
100005
100006
100007
100008
100009
100010
100011
100011
100012
100013
100014
100014
100015
100016
100016
100016
100017
100017
100017
100017
100017
99992.2
99992.2
99992.4
99992.6
99992.9
99993.3
99993.7
99994.2
99994.8
99995.5
99996.2
99996.9
99997.7
99998.6
99999.4
100000
100001
100002
100003
100004
100005
100006
100007
100008
100009
100010
100011
100012
100013
100014
100014
100015
100016
100016
100017
100017
100018
100018
100018
100018
100018
99991.2
99991.3
99991.4
99991.6
99991.9
99992.3
99992.8
99993.4
99994
99994.7
99995.5
99996.3
99997.1
99998
99999
100000
100001
100002
100003
100004
100005
100006
100007
100008
100009
100010
100011
100012
100013
100014
100015
100016
100017
100017
100018
100018
100019
100019
100019
100019
100019
99990.1
99990.2
99990.3
99990.6
99990.9
99991.3
99991.9
99992.5
99993.2
99993.9
99994.7
99995.6
99996.5
99997.5
99998.5
99999.6
100001
100002
100003
100004
100005
100006
100007
100009
100010
100011
100012
100013
100014
100015
100016
100017
100017
100018
100019
100019
100020
100020
100020
100020
100021
99988.9
99989
99989.1
99989.4
99989.8
99990.2
99990.8
99991.5
99992.2
99993
99993.9
99994.9
99995.9
99996.9
99998
99999.1
100000
100001
100003
100004
100005
100006
100008
100009
100010
100011
100012
100013
100015
100016
100017
100018
100018
100019
100020
100020
100021
100021
100022
100022
100022
99987.6
99987.6
99987.8
99988.1
99988.5
99989
99989.7
99990.4
99991.2
99992.1
99993
99994.1
99995.2
99996.3
99997.5
99998.7
99999.9
100001
100002
100004
100005
100006
100008
100009
100010
100012
100013
100014
100015
100016
100017
100018
100019
100020
100021
100022
100022
100023
100023
100023
100023
99986.1
99986.2
99986.4
99986.7
99987.2
99987.7
99988.4
99989.2
99990.1
99991.1
99992.1
99993.2
99994.4
99995.6
99996.9
99998.2
99999.5
100001
100002
100004
100005
100006
100008
100009
100011
100012
100013
100015
100016
100017
100018
100020
100021
100022
100022
100023
100024
100024
100025
100025
100025
99984.5
99984.6
99984.8
99985.2
99985.7
99986.3
99987.1
99987.9
99988.9
99990
99991.1
99992.3
99993.6
99994.9
99996.3
99997.7
99999.1
100001
100002
100003
100005
100006
100008
100009
100011
100012
100014
100015
100017
100018
100019
100021
100022
100023
100024
100025
100025
100026
100026
100026
100027
99982.8
99982.9
99983.1
99983.5
99984.1
99984.8
99985.6
99986.6
99987.6
99988.8
99990
99991.3
99992.7
99994.1
99995.6
99997.1
99998.6
100000
100002
100003
100005
100007
100008
100010
100011
100013
100014
100016
100018
100019
100020
100022
100023
100024
100025
100026
100027
100028
100028
100028
100028
99980.8
99980.9
99981.2
99981.7
99982.3
99983.1
99984
99985.1
99986.2
99987.5
99988.9
99990.3
99991.8
99993.3
99994.9
99996.5
99998.1
99999.8
100001
100003
100005
100007
100008
100010
100012
100013
100015
100017
100018
100020
100022
100023
100024
100026
100027
100028
100029
100030
100030
100030
100031
99978.7
99978.8
99979.1
99979.7
99980.4
99981.3
99982.3
99983.5
99984.8
99986.2
99987.7
99989.2
99990.8
99992.5
99994.2
99995.9
99997.7
99999.4
100001
100003
100005
100007
100008
100010
100012
100014
100016
100018
100019
100021
100023
100024
100026
100027
100029
100030
100031
100032
100032
100033
100033
99976.3
99976.5
99976.9
99977.5
99978.3
99979.3
99980.4
99981.8
99983.2
99984.7
99986.4
99988.1
99989.8
99991.6
99993.4
99995.3
99997.1
99999
100001
100003
100005
100007
100009
100010
100012
100014
100016
100018
100020
100022
100024
100026
100028
100029
100031
100032
100033
100034
100035
100035
100036
99973.7
99973.9
99974.3
99975
99976
99977.1
99978.4
99979.9
99981.5
99983.2
99985
99986.9
99988.8
99990.7
99992.7
99994.7
99996.6
99998.6
100001
100003
100005
100007
100009
100011
100013
100015
100017
100019
100021
100023
100025
100027
100029
100031
100033
100034
100036
100037
100038
100038
100039
99970.8
99971
99971.6
99972.4
99973.5
99974.8
99976.3
99978
99979.7
99981.6
99983.6
99985.6
99987.7
99989.8
99991.9
99994
99996.1
99998.2
100000
100002
100004
100007
100009
100011
100013
100015
100018
100020
100022
100024
100027
100029
100031
100033
100035
100037
100039
100040
100041
100042
100042
99967.5
99967.8
99968.5
99969.5
99970.7
99972.3
99974
99975.9
99977.9
99979.9
99982.1
99984.3
99986.6
99988.9
99991.2
99993.4
99995.6
99997.8
99999.9
100002
100004
100007
100009
100011
100013
100016
100018
100021
100023
100025
100028
100030
100033
100035
100038
100040
100042
100043
100045
100045
100046
99963.9
99964.2
99965
99966.2
99967.8
99969.6
99971.5
99973.7
99975.9
99978.2
99980.6
99983
99985.5
99988
99990.4
99992.8
99995.1
99997.3
99999.6
100002
100004
100006
100009
100011
100014
100016
100019
100021
100024
100027
100029
100032
100035
100038
100040
100043
100045
100047
100049
100050
100050
99959.6
99960.1
99961.1
99962.7
99964.5
99966.6
99968.9
99971.4
99973.8
99976.4
99979
99981.7
99984.4
99987.2
99989.8
99992.3
99994.7
99997
99999.2
100002
100004
100006
100009
100011
100014
100016
100019
100022
100025
100028
100031
100034
100037
100040
100043
100046
100049
100051
100053
100055
100055
99954.7
99955.4
99956.8
99958.7
99961
99963.6
99966.2
99969
99971.7
99974.5
99977.3
99980.2
99983.4
99986.4
99989.3
99991.9
99994.3
99996.6
99998.8
100001
100004
100006
100009
100011
100014
100017
100019
100022
100025
100029
100032
100035
100039
100042
100046
100049
100052
100056
100059
100061
100062
99948.9
99949.9
99951.8
99954.4
99957.3
99960.4
99963.5
99966.6
99969.6
99972.6
99975.6
99978.7
99982.3
99985.8
99989
99991.7
99994.1
99996.3
99998.3
100001
100003
100006
100009
100011
100014
100017
100020
100023
100026
100029
100033
100037
100041
100045
100048
100052
100056
100061
100065
100068
100070
99941.8
99943.4
99946.2
99949.6
99953.4
99957.1
99960.8
99964.2
99967.5
99970.6
99973.7
99976.9
99981.3
99985.5
99989
99991.8
99994.1
99996
99997.7
100000
100003
100005
100008
100012
100014
100017
100020
100023
100026
100030
100034
100039
100043
100047
100051
100055
100060
100065
100072
100077
100080
99932.7
99935.6
99939.8
99944.6
99949.4
99954
99958.2
99962
99965.5
99968.6
99971.7
99974.6
99980.2
99985.6
99989.5
99992.4
99994.4
99995.9
99996.8
99999.1
100002
100005
100008
100012
100015
100017
100019
100022
100026
100030
100035
100040
100045
100049
100053
100057
100062
100070
100080
100089
100094
99920
99925.8
99932.5
99939.3
99945.5
99951.1
99956
99960.2
99963.7
99966.5
99969
99970.8
99979.1
99986.6
99991
99993.6
99994.9
99995.5
99994.6
99997.2
100001
100004
100007
100012
100016
100016
100019
100021
100025
100029
100036
100043
100048
100051
100055
100058
100062
100073
100089
100104
100114
99901.5
99914.1
99925
99934.5
99942.4
99949
99954.4
99958.9
99962.5
99964.9
99966.4
99965.8
99978.5
99988.7
99993.2
99995.4
99996
99995.6
99992.6
99996.6
100001
100004
100007
100013
100016
100016
100018
100021
100024
100028
100037
100045
100049
100053
100056
100058
100060
100074
100100
100125
100145
99867.3
99899.2
99917.9
99931
99940.5
99947.8
99953.5
99957.9
99960.8
99961.4
99958.8
99951.4
99987.1
99997.4
99998.3
99997.3
99994.7
99989.5
99978.6
99992.3
100002
100005
100009
100019
100017
100009
100016
100021
100025
100031
100047
100051
100053
100054
100054
100051
100045
100078
100128
100157
100193
)
;

boundaryField
{
    movingWall
    {
        type            zeroGradient;
    }
    fixedWalls
    {
        type            zeroGradient;
    }
    frontAndBack
    {
        type            empty;
    }
}


// ************************************************************************* //
