/*--------------------------------*- C++ -*----------------------------------*\
| =========                 |                                                 |
| \\      /  F ield         | OpenFOAM: The Open Source CFD Toolbox           |
|  \\    /   O peration     | Version:  4.1                                   |
|   \\  /    A nd           | Web:      www.OpenFOAM.org                      |
|    \\/     M anipulation  |                                                 |
\*---------------------------------------------------------------------------*/
FoamFile
{
    version     2.0;
    format      ascii;
    class       volVectorField;
    location    "0.0054";
    object      U;
}
// * * * * * * * * * * * * * * * * * * * * * * * * * * * * * * * * * * * * * //

dimensions      [0 1 -1 0 0 0 0];

internalField   nonuniform List<vector> 
441
(
(0.00324294 -0.00580442 0)
(0.00527839 -0.00462199 0)
(-0.00115658 -3.43127e-165 0)
(0.00134577 -1.51449e-266 0)
(-0.0151916 -0.00538532 0)
(-0.00134577 -2.55674e-232 0)
(-1.32156e-202 -2.79123e-203 0)
(-6.9742e-204 -3.29303e-228 0)
(-1.39082e-212 -1.37835e-213 0)
(-0.00505247 7.84759e-266 0)
(-0.0566786 0.0202007 0)
(-0.0735945 0.0113515 0)
(-0.0861002 0.00566462 0)
(-0.083083 0.00166466 0)
(-0.0783627 -0.000174655 0)
(-0.0665967 -0.00150528 0)
(-0.0550929 -0.00192081 0)
(-0.0397506 -0.0025812 0)
(-0.0251006 -0.00225079 0)
(-0.0106207 -0.002116 0)
(0.00100713 0.000202412 0)
(0.00152938 -0.00240076 0)
(-0.0130027 0.00930447 0)
(-0.041774 0.00634268 0)
(-0.0660682 0.0146734 0)
(-0.09762 0.00732758 0)
(-0.11983 -0.0102146 0)
(-0.138306 -0.00139867 0)
(-0.154735 0.000719956 0)
(-0.167696 0.00943867 0)
(-0.183868 0.0499191 0)
(-0.194943 0.0465962 0)
(-0.190636 0.0184702 0)
(-0.187945 0.00334693 0)
(-0.173215 -0.00962858 0)
(-0.157607 -0.0163707 0)
(-0.133194 -0.0223469 0)
(-0.108994 -0.0247756 0)
(-0.0790061 -0.0282397 0)
(-0.0503487 -0.0266465 0)
(-0.0221384 -0.0248483 0)
(0.000163838 -0.00962489 0)
(0.00508684 0.00447321 0)
(-0.0119259 0.0380318 0)
(-0.0568273 0.0509127 0)
(-0.09821 0.0543329 0)
(-0.137668 0.0473529 0)
(-0.177979 0.0373963 0)
(-0.216692 0.0332806 0)
(-0.240372 0.0283427 0)
(-0.266202 0.0276793 0)
(-0.270907 0.0315013 0)
(-0.256165 0.0277514 0)
(-0.245169 0.00566706 0)
(-0.233206 -0.0113294 0)
(-0.213536 -0.0282519 0)
(-0.192173 -0.0395986 0)
(-0.161568 -0.0500608 0)
(-0.131265 -0.0552792 0)
(-0.0936277 -0.0613597 0)
(-0.0588376 -0.0581567 0)
(-0.0243475 -0.0527823 0)
(0.00152392 -0.0209084 0)
(0.00781098 0.00457267 0)
(-0.00627944 0.0729668 0)
(-0.064741 0.0932044 0)
(-0.114666 0.0971678 0)
(-0.163655 0.0874157 0)
(-0.20748 0.0711785 0)
(-0.245429 0.0617508 0)
(-0.273818 0.0506859 0)
(-0.294476 0.0411943 0)
(-0.302158 0.0374782 0)
(-0.295187 0.0203487 0)
(-0.281822 -0.00532192 0)
(-0.265989 -0.0286349 0)
(-0.241248 -0.0513202 0)
(-0.21487 -0.0683783 0)
(-0.178395 -0.0841182 0)
(-0.142914 -0.0924716 0)
(-0.0984538 -0.101833 0)
(-0.0592703 -0.0954894 0)
(-0.0198384 -0.0864866 0)
(0.00476854 -0.0322083 0)
(6.70542e-165 0.00195274 0)
(-0.00885768 0.110137 0)
(-0.0803395 0.158493 0)
(-0.131968 0.152204 0)
(-0.186566 0.139472 0)
(-0.232624 0.117936 0)
(-0.274463 0.0989177 0)
(-0.304274 0.0769707 0)
(-0.326624 0.0556722 0)
(-0.333961 0.0331471 0)
(-0.327945 0.00771757 0)
(-0.314801 -0.0229598 0)
(-0.296177 -0.0514378 0)
(-0.268103 -0.0791757 0)
(-0.237505 -0.101736 0)
(-0.194997 -0.122135 0)
(-0.154698 -0.13417 0)
(-0.101255 -0.145386 0)
(-0.0578812 -0.135429 0)
(-0.00979007 -0.117231 0)
(0.012084 -0.0348119 0)
(-6.90033e-266 0.0059066 0)
(-0.0707183 0.157975 0)
(-0.108814 0.214677 0)
(-0.164881 0.205182 0)
(-0.21181 0.188157 0)
(-0.259307 0.160217 0)
(-0.299001 0.133863 0)
(-0.331192 0.103137 0)
(-0.353226 0.0712862 0)
(-0.363819 0.0381521 0)
(-0.362225 0.00107026 0)
(-0.350183 -0.0377529 0)
(-0.33065 -0.0754969 0)
(-0.299292 -0.110843 0)
(-0.264301 -0.141427 0)
(-0.21518 -0.16824 0)
(-0.1685 -0.185701 0)
(-0.104544 -0.200712 0)
(-0.0541652 -0.185813 0)
(0.00925682 -0.159235 0)
(0.0190947 -0.0295929 0)
(-0.0236264 0.0778806 0)
(-0.0918398 0.214518 0)
(-0.135798 0.254025 0)
(-0.190117 0.253524 0)
(-0.240749 0.23379 0)
(-0.290074 0.204176 0)
(-0.333046 0.170505 0)
(-0.367702 0.13079 0)
(-0.392219 0.0882088 0)
(-0.404939 0.0422627 0)
(-0.405242 -0.00569078 0)
(-0.393925 -0.0543555 0)
(-0.37307 -0.101817 0)
(-0.338667 -0.145494 0)
(-0.29957 -0.184919 0)
(-0.24323 -0.218223 0)
(-0.191615 -0.24325 0)
(-0.114923 -0.26051 0)
(-0.0645113 -0.24695 0)
(0.0226428 -0.191649 0)
(5.70091e-266 -0.00477368 0)
(-0.0175443 0.123892 0)
(-0.0789557 0.271154 0)
(-0.141965 0.314027 0)
(-0.206091 0.311142 0)
(-0.264538 0.288874 0)
(-0.319798 0.253208 0)
(-0.366382 0.212071 0)
(-0.405214 0.162559 0)
(-0.43221 0.108832 0)
(-0.448329 0.0509507 0)
(-0.451074 -0.00998452 0)
(-0.441199 -0.0704814 0)
(-0.419749 -0.13094 0)
(-0.383212 -0.185373 0)
(-0.339996 -0.236856 0)
(-0.278164 -0.278091 0)
(-0.220124 -0.313147 0)
(-0.137832 -0.33147 0)
(-0.0807181 -0.319935 0)
(0.00233063 -0.231729 0)
(1.19447e-24 -3.06111e-24 0)
(-0.0145991 0.171776 0)
(-0.0791155 0.3369 0)
(-0.155419 0.380496 0)
(-0.228565 0.374605 0)
(-0.296608 0.347017 0)
(-0.358179 0.305041 0)
(-0.410086 0.25562 0)
(-0.453155 0.196119 0)
(-0.483236 0.131262 0)
(-0.502496 0.0610441 0)
(-0.507124 -0.0126107 0)
(-0.499076 -0.0855538 0)
(-0.47727 -0.159246 0)
(-0.439494 -0.225147 0)
(-0.392453 -0.288802 0)
(-0.324727 -0.33836 0)
(-0.259555 -0.381334 0)
(-0.166759 -0.401105 0)
(-0.101347 -0.383158 0)
(-0.00187143 -0.275323 0)
(4.64181e-77 -2.98618e-25 0)
(-0.0130715 0.218889 0)
(-0.0795875 0.413688 0)
(-0.167379 0.465056 0)
(-0.249781 0.453462 0)
(-0.327029 0.419783 0)
(-0.395597 0.367392 0)
(-0.452377 0.307941 0)
(-0.499974 0.236033 0)
(-0.53275 0.158568 0)
(-0.555594 0.0747787 0)
(-0.562426 -0.0135303 0)
(-0.557311 -0.100822 0)
(-0.536326 -0.191046 0)
(-0.498921 -0.271317 0)
(-0.448917 -0.352237 0)
(-0.375922 -0.413197 0)
(-0.302458 -0.47119 0)
(-0.198086 -0.493784 0)
(-0.122584 -0.483231 0)
(-0.00880596 -0.340619 0)
(1.16826e-164 -1.16045e-77 0)
(-0.0139556 0.261741 0)
(-0.0886345 0.489381 0)
(-0.190439 0.549224 0)
(-0.283873 0.532464 0)
(-0.370742 0.491984 0)
(-0.446188 0.429094 0)
(-0.506905 0.359587 0)
(-0.55806 0.275823 0)
(-0.592284 0.186785 0)
(-0.618341 0.0906447 0)
(-0.627053 -0.0107223 0)
(-0.626425 -0.111284 0)
(-0.607678 -0.217084 0)
(-0.574064 -0.311997 0)
(-0.522871 -0.410485 0)
(-0.44779 -0.484534 0)
(-0.364916 -0.556231 0)
(-0.252365 -0.581868 0)
(-0.161502 -0.56586 0)
(-0.0640246 -0.402131 0)
(-4.19077e-267 0.00380769 0)
(-0.016213 0.323187 0)
(-0.099033 0.592614 0)
(-0.21435 0.662813 0)
(-0.318128 0.635273 0)
(-0.413063 0.58431 0)
(-0.494099 0.504465 0)
(-0.556695 0.421306 0)
(-0.609923 0.321895 0)
(-0.643963 0.219441 0)
(-0.672594 0.109657 0)
(-0.683107 -0.00580623 0)
(-0.688192 -0.120531 0)
(-0.673907 -0.244671 0)
(-0.647196 -0.357166 0)
(-0.598216 -0.480463 0)
(-0.521923 -0.573425 0)
(-0.428284 -0.668717 0)
(-0.290776 -0.701304 0)
(-0.17232 -0.673429 0)
(-0.0236002 -0.506963 0)
(0.0152307 -0.0720753 0)
(-0.0214731 0.372945 0)
(-0.120232 0.68448 0)
(-0.257123 0.765921 0)
(-0.375363 0.728198 0)
(-0.477811 0.666691 0)
(-0.562961 0.570637 0)
(-0.622997 0.474887 0)
(-0.675117 0.3621 0)
(-0.704947 0.249317 0)
(-0.734606 0.129839 0)
(-0.745525 0.00497239 0)
(-0.758544 -0.119523 0)
(-0.75091 -0.257638 0)
(-0.738038 -0.386059 0)
(-0.696118 -0.534523 0)
(-0.626721 -0.65274 0)
(-0.524276 -0.784589 0)
(-0.353673 -0.83699 0)
(-0.203088 -0.828446 0)
(0.055384 -0.589485 0)
(1.09347e-231 -0.00380769 0)
(-0.0283895 0.468474 0)
(-0.143097 0.8319 0)
(-0.300194 0.922815 0)
(-0.430982 0.857966 0)
(-0.537526 0.776002 0)
(-0.62347 0.650795 0)
(-0.67715 0.536065 0)
(-0.724991 0.404503 0)
(-0.747775 0.279861 0)
(-0.776377 0.15058 0)
(-0.786614 0.0173656 0)
(-0.807602 -0.115115 0)
(-0.80915 -0.267712 0)
(-0.815208 -0.412524 0)
(-0.790081 -0.596075 0)
(-0.743014 -0.747356 0)
(-0.648184 -0.946877 0)
(-0.477336 -1.02859 0)
(-0.290504 -1.08279 0)
(0.00108316 -0.726596 0)
(1.57893e-202 1.52006e-184 0)
(-0.0460047 0.537177 0)
(-0.19438 0.949998 0)
(-0.385327 1.04988 0)
(-0.534044 0.959944 0)
(-0.637256 0.857485 0)
(-0.718174 0.706685 0)
(-0.75411 0.575874 0)
(-0.791048 0.431187 0)
(-0.799036 0.300573 0)
(-0.823478 0.168961 0)
(-0.829667 0.0361751 0)
(-0.860797 -0.0949855 0)
(-0.872547 -0.249805 0)
(-0.909014 -0.401504 0)
(-0.907588 -0.605463 0)
(-0.909682 -0.79009 0)
(-0.831929 -1.04616 0)
(-0.686915 -1.1919 0)
(-0.443519 -1.29721 0)
(0.000340742 -0.88345 0)
(6.08024e-184 -4.45493e-184 0)
(-0.0655912 0.717213 0)
(-0.24694 1.17638 0)
(-0.463325 1.27274 0)
(-0.622803 1.11214 0)
(-0.715166 0.96789 0)
(-0.785069 0.768758 0)
(-0.799443 0.613359 0)
(-0.822161 0.450086 0)
(-0.813474 0.31369 0)
(-0.830737 0.181817 0)
(-0.830561 0.053286 0)
(-0.867082 -0.0714623 0)
(-0.88745 -0.224082 0)
(-0.950148 -0.376514 0)
(-0.982104 -0.604324 0)
(-1.04219 -0.822268 0)
(-1.02833 -1.1847 0)
(-0.957614 -1.41925 0)
(-0.747632 -1.79143 0)
(-0.264373 -1.18645 0)
(1.35584e-254 -1.52006e-184 0)
(-0.129563 0.834771 0)
(-0.389966 1.33407 0)
(-0.633328 1.41948 0)
(-0.797883 1.20136 0)
(-0.841814 1.01796 0)
(-0.880849 0.785034 0)
(-0.847154 0.612731 0)
(-0.8433 0.442875 0)
(-0.805533 0.309115 0)
(-0.810923 0.18663 0)
(-0.798914 0.072257 0)
(-0.841724 -0.0346022 0)
(-0.867266 -0.167099 0)
(-0.96807 -0.299982 0)
(-1.0323 -0.512669 0)
(-1.20243 -0.733575 0)
(-1.26029 -1.12388 0)
(-1.45181 -1.46367 0)
(-1.25156 -1.95846 0)
(-1.27271 -1.64928 0)
(-1.7459e-264 -0.144469 0)
(-0.18181 1.25782 0)
(-0.489896 1.68514 0)
(-0.704679 1.70321 0)
(-0.831717 1.32155 0)
(-0.804832 1.06493 0)
(-0.795395 0.774054 0)
(-0.710925 0.582512 0)
(-0.67562 0.408455 0)
(-0.609015 0.283065 0)
(-0.597555 0.175858 0)
(-0.568939 0.0818563 0)
(-0.604185 -0.00127922 0)
(-0.621241 -0.104833 0)
(-0.727238 -0.207688 0)
(-0.803633 -0.385458 0)
(-1.0144 -0.586109 0)
(-1.15439 -0.968623 0)
(-1.45269 -1.40537 0)
(-1.47992 -2.05184 0)
(-1.48545 -2.35952 0)
(-0.577875 -1.43519 0)
(-0.395028 1.47029 0)
(-0.778146 1.82702 0)
(-0.733469 1.7532 0)
(-0.691888 1.2836 0)
(-0.436711 0.981167 0)
(-0.307923 0.682338 0)
(-0.111486 0.493741 0)
(-0.0179395 0.33778 0)
(0.0978033 0.23132 0)
(0.134908 0.147438 0)
(0.187718 0.0781893 0)
(0.16288 0.0227718 0)
(0.163152 -0.0458257 0)
(0.0544512 -0.106724 0)
(-0.00719583 -0.228146 0)
(-0.25552 -0.36298 0)
(-0.406301 -0.687268 0)
(-0.850047 -1.10357 0)
(-0.998613 -1.92064 0)
(-1.24279 -2.49552 0)
(-0.636455 -2.20111 0)
(-0.238556 2.49077 0)
(-0.0988723 2.01783 0)
(0.531277 1.66779 0)
(0.917573 1.01932 0)
(1.39801 0.703505 0)
(1.65954 0.44516 0)
(1.93385 0.301192 0)
(2.07489 0.197545 0)
(2.22003 0.132185 0)
(2.27912 0.0863729 0)
(2.35199 0.0512714 0)
(2.34927 0.0261618 0)
(2.37954 -0.00453803 0)
(2.30893 -0.0307885 0)
(2.30273 -0.0933007 0)
(2.1158 -0.173834 0)
(2.03239 -0.410101 0)
(1.57733 -0.786677 0)
(1.24539 -1.7235 0)
(0.29822 -2.69725 0)
(-0.100466 -3.40541 0)
(1.69784 1.70497 0)
(2.77443 0.993122 0)
(4.55438 0.738467 0)
(5.25102 0.39476 0)
(5.92658 0.248068 0)
(6.22709 0.13807 0)
(6.49612 0.0842295 0)
(6.6206 0.0491894 0)
(6.73779 0.0295402 0)
(6.78416 0.0169072 0)
(6.84028 0.00779295 0)
(6.84153 0.000914309 0)
(6.87027 -0.00807597 0)
(6.8235 -0.0168915 0)
(6.83078 -0.0392127 0)
(6.67965 -0.0641786 0)
(6.61198 -0.149349 0)
(6.09838 -0.252626 0)
(5.61987 -0.613266 0)
(3.69818 -1.01516 0)
(1.98589 -1.86227 0)
)
;

boundaryField
{
    movingWall
    {
        type            fixedValue;
        value           uniform (10 0 0);
    }
    fixedWalls
    {
        type            noSlip;
    }
    frontAndBack
    {
        type            empty;
    }
}


// ************************************************************************* //
