/*--------------------------------*- C++ -*----------------------------------*\
| =========                 |                                                 |
| \\      /  F ield         | OpenFOAM: The Open Source CFD Toolbox           |
|  \\    /   O peration     | Version:  4.1                                   |
|   \\  /    A nd           | Web:      www.OpenFOAM.org                      |
|    \\/     M anipulation  |                                                 |
\*---------------------------------------------------------------------------*/
FoamFile
{
    version     2.0;
    format      ascii;
    class       volVectorField;
    location    "9.5";
    object      U;
}
// * * * * * * * * * * * * * * * * * * * * * * * * * * * * * * * * * * * * * //

dimensions      [0 1 -1 0 0 0 0];

internalField   nonuniform List<vector> 
400
(
(0.00019891 -0.000196053 0)
(-9.28564e-05 8.4968e-05 0)
(-0.00154003 0.000332144 0)
(-0.00373691 0.00051426 0)
(-0.00644854 0.000603055 0)
(-0.00933692 0.000632823 0)
(-0.0121773 0.000608471 0)
(-0.0147267 0.000534186 0)
(-0.0167575 0.000403831 0)
(-0.0180341 0.000215625 0)
(-0.0183501 -2.38282e-05 0)
(-0.0175684 -0.000292347 0)
(-0.0156738 -0.000552202 0)
(-0.0128224 -0.000752628 0)
(-0.00934668 -0.000844373 0)
(-0.00575324 -0.000787853 0)
(-0.00259004 -0.000585306 0)
(-0.000411218 -0.000258336 0)
(0.000553083 7.18598e-05 0)
(0.000315109 0.000300214 0)
(-8.93971e-05 8.35285e-05 0)
(-0.00205582 0.00193037 0)
(-0.00646345 0.00364821 0)
(-0.0124095 0.00487738 0)
(-0.0193892 0.0055046 0)
(-0.0266704 0.00562062 0)
(-0.0336972 0.00526403 0)
(-0.0398812 0.00445435 0)
(-0.044678 0.00319034 0)
(-0.0475648 0.00150291 0)
(-0.0481175 -0.000511286 0)
(-0.0460894 -0.00266274 0)
(-0.0415029 -0.00467212 0)
(-0.0347311 -0.00620125 0)
(-0.0264999 -0.00692827 0)
(-0.0178755 -0.00662836 0)
(-0.0100142 -0.0053041 0)
(-0.00408762 -0.0031861 0)
(-0.00062263 -0.000942982 0)
(0.00017686 0.000585557 0)
(-0.00041887 0.00166785 0)
(-0.00435454 0.00646698 0)
(-0.0117649 0.0105158 0)
(-0.0211618 0.0132941 0)
(-0.0318267 0.0146535 0)
(-0.042748 0.0147339 0)
(-0.0531443 0.0136119 0)
(-0.0621925 0.0113346 0)
(-0.0691398 0.00793863 0)
(-0.0732841 0.00354398 0)
(-0.074072 -0.00157773 0)
(-0.0711889 -0.00695855 0)
(-0.0646652 -0.0119455 0)
(-0.0549757 -0.0157709 0)
(-0.0430513 -0.0177046 0)
(-0.0302937 -0.0172378 0)
(-0.01827 -0.0143449 0)
(-0.00866629 -0.00954632 0)
(-0.00234388 -0.00420582 0)
(-1.48262e-05 -1.39019e-05 0)
(-0.000742497 0.0044309 0)
(-0.00661401 0.0133994 0)
(-0.0169044 0.0203557 0)
(-0.0294791 0.0248926 0)
(-0.0434169 0.026968 0)
(-0.0574857 0.0268136 0)
(-0.0707632 0.0245625 0)
(-0.0822815 0.0203006 0)
(-0.0911641 0.0141193 0)
(-0.0965942 0.00625131 0)
(-0.0979163 -0.0028286 0)
(-0.0947231 -0.0123398 0)
(-0.0869678 -0.021208 0)
(-0.0750907 -0.028164 0)
(-0.060068 -0.0319645 0)
(-0.0435054 -0.0316899 0)
(-0.0273233 -0.0271715 0)
(-0.0137968 -0.0191677 0)
(-0.0042679 -0.00975836 0)
(-0.000209406 -0.0015224 0)
(-0.00101836 0.00834228 0)
(-0.00863618 0.0226922 0)
(-0.0215542 0.0331132 0)
(-0.0370053 0.0395795 0)
(-0.0538763 0.0423234 0)
(-0.0707575 0.0417405 0)
(-0.0866476 0.0380529 0)
(-0.100503 0.0313969 0)
(-0.111384 0.0219223 0)
(-0.118394 0.00996924 0)
(-0.120769 -0.00379587 0)
(-0.117955 -0.0182904 0)
(-0.109719 -0.0320085 0)
(-0.096317 -0.0431212 0)
(-0.0786118 -0.0497399 0)
(-0.0582996 -0.0503308 0)
(-0.0376403 -0.0443521 0)
(-0.0196542 -0.0326442 0)
(-0.00639383 -0.0180026 0)
(-0.000389047 -0.00403314 0)
(-0.00125148 0.0132169 0)
(-0.0103617 0.0340048 0)
(-0.0255503 0.0483728 0)
(-0.0434938 0.0569058 0)
(-0.0629161 0.0602797 0)
(-0.0822767 0.0591413 0)
(-0.100549 0.0538453 0)
(-0.116673 0.0445869 0)
(-0.129698 0.0315593 0)
(-0.138676 0.0151704 0)
(-0.142734 -0.00378094 0)
(-0.141116 -0.0239755 0)
(-0.133302 -0.0435176 0)
(-0.11921 -0.0599928 0)
(-0.099397 -0.0707229 0)
(-0.0754762 -0.0732767 0)
(-0.0499705 -0.0663595 0)
(-0.0267889 -0.0505783 0)
(-0.00899148 -0.0293822 0)
(-0.000604059 -0.00766229 0)
(-0.00143173 0.0188981 0)
(-0.0117227 0.04702 0)
(-0.0287308 0.0657573 0)
(-0.0486838 0.076494 0)
(-0.0701809 0.080502 0)
(-0.0916013 0.0787688 0)
(-0.11194 0.0718299 0)
(-0.13018 0.0599469 0)
(-0.145408 0.04333 0)
(-0.15667 0.0223927 0)
(-0.163 -0.00202836 0)
(-0.163432 -0.02849 0)
(-0.157092 -0.0548061 0)
(-0.143422 -0.0780087 0)
(-0.122455 -0.0945153 0)
(-0.0954449 -0.100667 0)
(-0.064952 -0.0938671 0)
(-0.0357977 -0.0739273 0)
(-0.0123828 -0.0447135 0)
(-0.000903664 -0.0127356 0)
(-0.00155394 0.0251698 0)
(-0.0126645 0.0613006 0)
(-0.0309515 0.0847337 0)
(-0.0523133 0.0977877 0)
(-0.0752621 0.102463 0)
(-0.098148 0.100174 0)
(-0.120032 0.09169 0)
(-0.139995 0.0773499 0)
(-0.157221 0.0573534 0)
(-0.170816 0.0320474 0)
(-0.179785 0.00219137 0)
(-0.182997 -0.0308025 0)
(-0.179237 -0.064628 0)
(-0.167389 -0.0958969 0)
(-0.146753 -0.120112 0)
(-0.117851 -0.132097 0)
(-0.082838 -0.127261 0)
(-0.0471998 -0.103702 0)
(-0.0169313 -0.0650589 0)
(-0.00135477 -0.0197487 0)
(-0.00161529 0.0318095 0)
(-0.0131534 0.0763755 0)
(-0.0321074 0.104705 0)
(-0.0541596 0.12013 0)
(-0.077766 0.125496 0)
(-0.101296 0.122721 0)
(-0.123917 0.112872 0)
(-0.144862 0.0963854 0)
(-0.163482 0.0734361 0)
(-0.179028 0.044243 0)
(-0.190583 0.00937487 0)
(-0.196974 -0.0299627 0)
(-0.196743 -0.0715795 0)
(-0.188251 -0.111931 0)
(-0.169938 -0.145786 0)
(-0.141202 -0.166344 0)
(-0.103144 -0.166312 0)
(-0.0612371 -0.140761 0)
(-0.0229995 -0.0917014 0)
(-0.00203942 -0.0294181 0)
(-0.00162455 0.038571 0)
(-0.0132178 0.0917124 0)
(-0.0322018 0.124966 0)
(-0.054136 0.142701 0)
(-0.0774392 0.148706 0)
(-0.100553 0.145485 0)
(-0.122787 0.134469 0)
(-0.143584 0.116231 0)
(-0.162531 0.0909267 0)
(-0.179122 0.0586161 0)
(-0.192653 0.0195912 0)
(-0.202079 -0.0253137 0)
(-0.2059 -0.0742951 0)
(-0.202121 -0.124039 0)
(-0.18837 -0.169007 0)
(-0.16265 -0.201017 0)
(-0.124306 -0.209623 0)
(-0.0776284 -0.185298 0)
(-0.0309164 -0.125916 0)
(-0.00307139 -0.0426761 0)
(-0.0016187 0.045289 0)
(-0.0129931 0.106859 0)
(-0.0314139 0.144834 0)
(-0.052382 0.164611 0)
(-0.0742905 0.171047 0)
(-0.0957235 0.167299 0)
(-0.116173 0.155251 0)
(-0.135354 0.135655 0)
(-0.15315 0.108685 0)
(-0.169387 0.0742425 0)
(-0.183701 0.032307 0)
(-0.195358 -0.0167742 0)
(-0.20307 -0.0718301 0)
(-0.204781 -0.130221 0)
(-0.19759 -0.18675 0)
(-0.178115 -0.232565 0)
(-0.143457 -0.254212 0)
(-0.095237 -0.236228 0)
(-0.0408762 -0.168611 0)
(-0.0046088 -0.0606813 0)
(-0.00166713 0.0518371 0)
(-0.01279 0.121381 0)
(-0.0302102 0.16358 0)
(-0.0494013 0.184843 0)
(-0.0687433 0.191276 0)
(-0.0870838 0.186753 0)
(-0.104158 0.173695 0)
(-0.120024 0.15308 0)
(-0.134909 0.125145 0)
(-0.149035 0.0896708 0)
(-0.162463 0.0463404 0)
(-0.174912 -0.00502105 0)
(-0.185548 -0.0640276 0)
(-0.192615 -0.129099 0)
(-0.193169 -0.196118 0)
(-0.182834 -0.256701 0)
(-0.156498 -0.295414 0)
(-0.111749 -0.290511 0)
(-0.0527347 -0.21972 0)
(-0.00686281 -0.0847499 0)
(-0.00193125 0.0585398 0)
(-0.0131536 0.135343 0)
(-0.0293523 0.180827 0)
(-0.0460286 0.202537 0)
(-0.0615757 0.208167 0)
(-0.0753174 0.202357 0)
(-0.0873155 0.188137 0)
(-0.0980642 0.166729 0)
(-0.108164 0.138469 0)
(-0.118254 0.103057 0)
(-0.128846 0.0599379 0)
(-0.14018 0.00846437 0)
(-0.152043 -0.0517723 0)
(-0.163298 -0.120458 0)
(-0.171556 -0.195165 0)
(-0.172155 -0.269317 0)
(-0.158527 -0.327409 0)
(-0.123503 -0.34282 0)
(-0.0656414 -0.27744 0)
(-0.0100812 -0.116227 0)
(-0.00266149 0.0656652 0)
(-0.0150706 0.148638 0)
(-0.0301474 0.195934 0)
(-0.0436333 0.216509 0)
(-0.0540012 0.220187 0)
(-0.0614618 0.212374 0)
(-0.0665294 0.196738 0)
(-0.0702626 0.174702 0)
(-0.0736443 0.146699 0)
(-0.0777207 0.112377 0)
(-0.0834185 0.0710162 0)
(-0.0914809 0.0216158 0)
(-0.102371 -0.0368898 0)
(-0.115771 -0.105399 0)
(-0.130386 -0.183458 0)
(-0.142124 -0.267441 0)
(-0.144392 -0.344211 0)
(-0.125546 -0.385714 0)
(-0.0775305 -0.337354 0)
(-0.0144687 -0.155995 0)
(-0.00440587 0.0754883 0)
(-0.0198305 0.162973 0)
(-0.0338654 0.209427 0)
(-0.0432365 0.22611 0)
(-0.0466289 0.225977 0)
(-0.0457918 0.215067 0)
(-0.0418284 0.197592 0)
(-0.0365127 0.175018 0)
(-0.0311925 0.147789 0)
(-0.0272829 0.115488 0)
(-0.0260507 0.077287 0)
(-0.0286617 0.0319752 0)
(-0.0362125 -0.0219338 0)
(-0.0492306 -0.0862517 0)
(-0.067869 -0.162342 0)
(-0.0893399 -0.250082 0)
(-0.10886 -0.341009 0)
(-0.111692 -0.41069 0)
(-0.0844093 -0.392081 0)
(-0.0199778 -0.204046 0)
(-0.00801892 0.0882364 0)
(-0.0300358 0.177437 0)
(-0.0424685 0.219275 0)
(-0.0456758 0.228642 0)
(-0.0388622 0.22269 0)
(-0.0266064 0.207748 0)
(-0.0107207 0.188261 0)
(0.0061518 0.165473 0)
(0.0223814 0.139689 0)
(0.0362723 0.110386 0)
(0.0463372 0.0766698 0)
(0.0511142 0.0372695 0)
(0.0490061 -0.00945168 0)
(0.0387626 -0.0657519 0)
(0.0187331 -0.134248 0)
(-0.0099845 -0.217993 0)
(-0.0461744 -0.314621 0)
(-0.0742981 -0.408774 0)
(-0.0796198 -0.430309 0)
(-0.0257363 -0.257159 0)
(-0.0146308 0.114325 0)
(-0.0452968 0.19761 0)
(-0.0517831 0.226689 0)
(-0.0435184 0.2223 0)
(-0.0209923 0.207352 0)
(0.00703188 0.187257 0)
(0.0382314 0.165777 0)
(0.0691678 0.143418 0)
(0.0981538 0.120037 0)
(0.123405 0.0949187 0)
(0.143399 0.0671006 0)
(0.15656 0.0353677 0)
(0.161009 -0.00184648 0)
(0.154997 -0.0467666 0)
(0.135658 -0.102522 0)
(0.102392 -0.174137 0)
(0.0517757 -0.265212 0)
(-0.002679 -0.373477 0)
(-0.0517706 -0.439067 0)
(-0.028506 -0.309904 0)
(-0.0256227 0.141896 0)
(-0.0656322 0.209169 0)
(-0.0480774 0.2167 0)
(-0.014732 0.195441 0)
(0.0339164 0.171758 0)
(0.0837415 0.148371 0)
(0.133407 0.127007 0)
(0.179549 0.107161 0)
(0.221115 0.088081 0)
(0.256757 0.0688827 0)
(0.285309 0.0486103 0)
(0.305398 0.0262381 0)
(0.315208 0.000480179 0)
(0.312768 -0.0303982 0)
(0.294573 -0.0692239 0)
(0.258552 -0.121017 0)
(0.19693 -0.193199 0)
(0.118654 -0.296399 0)
(0.0177537 -0.395438 0)
(-0.01718 -0.338958 0)
(-0.018743 0.214603 0)
(-0.0197898 0.215339 0)
(0.0566183 0.181553 0)
(0.128637 0.140333 0)
(0.205472 0.110455 0)
(0.273621 0.0882018 0)
(0.335169 0.0709628 0)
(0.388711 0.0570309 0)
(0.434597 0.0449871 0)
(0.472567 0.0338699 0)
(0.50223 0.0228596 0)
(0.522798 0.0112505 0)
(0.532969 -0.00178866 0)
(0.530991 -0.0172419 0)
(0.513706 -0.0371105 0)
(0.478136 -0.0648109 0)
(0.414569 -0.108576 0)
(0.323921 -0.186717 0)
(0.173161 -0.296553 0)
(0.0429735 -0.335036 0)
(0.211336 0.129544 0)
(0.297291 0.10094 0)
(0.45119 0.0674636 0)
(0.543296 0.0443092 0)
(0.618053 0.0290776 0)
(0.673933 0.0198412 0)
(0.717845 0.0138408 0)
(0.752428 0.00979868 0)
(0.779659 0.00682563 0)
(0.800537 0.00442773 0)
(0.815498 0.00227501 0)
(0.82449 0.000148018 0)
(0.827018 -0.00217542 0)
(0.822085 -0.00488386 0)
(0.807813 -0.00852363 0)
(0.781226 -0.0136921 0)
(0.734293 -0.0229002 0)
(0.658594 -0.0407284 0)
(0.498161 -0.0743685 0)
(0.288346 -0.136215 0)
)
;

boundaryField
{
    movingWall
    {
        type            fixedValue;
        value           uniform (1 0 0);
    }
    fixedWalls
    {
        type            noSlip;
    }
    frontAndBack
    {
        type            empty;
    }
}


// ************************************************************************* //
