/*--------------------------------*- C++ -*----------------------------------*\
| =========                 |                                                 |
| \\      /  F ield         | OpenFOAM: The Open Source CFD Toolbox           |
|  \\    /   O peration     | Version:  4.1                                   |
|   \\  /    A nd           | Web:      www.OpenFOAM.org                      |
|    \\/     M anipulation  |                                                 |
\*---------------------------------------------------------------------------*/
FoamFile
{
    version     2.0;
    format      ascii;
    class       volVectorField;
    location    "0.01";
    object      U;
}
// * * * * * * * * * * * * * * * * * * * * * * * * * * * * * * * * * * * * * //

dimensions      [0 1 -1 0 0 0 0];

internalField   nonuniform List<vector> 
100
(
(-0.000799338 0.00079486 0)
(-0.00234219 0.000707818 0)
(-0.00370999 0.000578581 0)
(-0.00465744 0.000340362 0)
(-0.00515024 0.000134275 0)
(-0.00515352 -0.000131372 0)
(-0.00466784 -0.000338296 0)
(-0.00372261 -0.000578849 0)
(-0.00235314 -0.000709555 0)
(-0.000804489 -0.000798563 0)
(-0.000955277 0.00233123 0)
(-0.00281528 0.00216711 0)
(-0.00442746 0.00177304 0)
(-0.00553812 0.00104549 0)
(-0.00610187 0.000414639 0)
(-0.00610602 -0.000403315 0)
(-0.00555186 -0.00103704 0)
(-0.00444409 -0.00177345 0)
(-0.00283004 -0.00217282 0)
(-0.000962481 -0.00234562 0)
(-0.00117681 0.00468124 0)
(-0.00331304 0.00422787 0)
(-0.00516862 0.00344243 0)
(-0.0064309 0.00198469 0)
(-0.00705655 0.000793377 0)
(-0.00706264 -0.000773629 0)
(-0.00645291 -0.00197023 0)
(-0.00519538 -0.00344459 0)
(-0.00333892 -0.00424005 0)
(-0.00119101 -0.00470974 0)
(-0.00172211 0.00659814 0)
(-0.00444273 0.00590297 0)
(-0.00669136 0.00484088 0)
(-0.00819962 0.00274243 0)
(-0.00887338 0.00113109 0)
(-0.00888257 -0.00108916 0)
(-0.00823455 -0.00270807 0)
(-0.00673395 -0.00483916 0)
(-0.00448496 -0.00591706 0)
(-0.00174601 -0.00665672 0)
(-0.00234075 0.0113415 0)
(-0.00563492 0.0093781 0)
(-0.00834581 0.0076643 0)
(-0.0101418 0.00410291 0)
(-0.0108885 0.00173453 0)
(-0.010902 -0.00167836 0)
(-0.0102031 -0.00405937 0)
(-0.00842104 -0.00767189 0)
(-0.00572442 -0.00941548 0)
(-0.00240083 -0.0114479 0)
(-0.00435318 0.013845 0)
(-0.00902068 0.0111325 0)
(-0.0119929 0.00916485 0)
(-0.0141309 0.00476334 0)
(-0.0146549 0.00210318 0)
(-0.0146761 -0.00197542 0)
(-0.0142275 -0.00464226 0)
(-0.0121146 -0.0091356 0)
(-0.00916333 -0.0111292 0)
(-0.00444521 -0.0140637 0)
(-0.00592669 0.0263382 0)
(-0.0114766 0.0173426 0)
(-0.0147435 0.0140854 0)
(-0.0172017 0.00650481 0)
(-0.0176232 0.00296478 0)
(-0.0176427 -0.00282538 0)
(-0.0173576 -0.00638644 0)
(-0.0149388 -0.0141004 0)
(-0.0118157 -0.0174523 0)
(-0.00621657 -0.0267441 0)
(-0.0143758 0.0290936 0)
(-0.0231212 0.0179822 0)
(-0.0227107 0.0145023 0)
(-0.0250671 0.006465 0)
(-0.0237945 0.00305722 0)
(-0.0238292 -0.00271333 0)
(-0.0253 -0.00606536 0)
(-0.0230224 -0.0142751 0)
(-0.0235727 -0.0177 0)
(-0.014627 -0.0299651 0)
(-0.0144436 0.0689203 0)
(-0.0226451 0.0254691 0)
(-0.0201574 0.019169 0)
(-0.0221945 0.00663913 0)
(-0.0202669 0.00322627 0)
(-0.0200903 -0.00293779 0)
(-0.0221408 -0.00634402 0)
(-0.0195755 -0.0191621 0)
(-0.0225913 -0.0258605 0)
(-0.0132287 -0.0704769 0)
(0.073065 0.059231 0)
(0.0743174 0.0194598 0)
(0.111773 0.0139071 0)
(0.113045 0.00452529 0)
(0.120456 0.00210884 0)
(0.120774 -0.0018809 0)
(0.113335 -0.00416973 0)
(0.112791 -0.0135939 0)
(0.0752071 -0.0189221 0)
(0.0737904 -0.058568 0)
)
;

boundaryField
{
    movingWall
    {
        type            fixedValue;
        value           uniform (1 0 0);
    }
    fixedWalls
    {
        type            noSlip;
    }
    frontAndBack
    {
        type            empty;
    }
}


// ************************************************************************* //
