/*--------------------------------*- C++ -*----------------------------------*\
| =========                 |                                                 |
| \\      /  F ield         | OpenFOAM: The Open Source CFD Toolbox           |
|  \\    /   O peration     | Version:  4.1                                   |
|   \\  /    A nd           | Web:      www.OpenFOAM.org                      |
|    \\/     M anipulation  |                                                 |
\*---------------------------------------------------------------------------*/
FoamFile
{
    version     2.0;
    format      ascii;
    class       volVectorField;
    location    "0.178";
    object      U;
}
// * * * * * * * * * * * * * * * * * * * * * * * * * * * * * * * * * * * * * //

dimensions      [0 1 -1 0 0 0 0];

internalField   nonuniform List<vector> 
100
(
(-0.00135766 0.000713897 0)
(-0.00411648 0.00107647 0)
(-0.011888 0.00145855 0)
(-0.0164232 0.000689485 0)
(-0.0213527 0.000450704 0)
(-0.0228589 -0.000934795 0)
(-0.0209562 -0.00162096 0)
(-0.0166223 -0.00314167 0)
(-0.00670883 -0.00302431 0)
(-0.00218529 -0.0023191 0)
(-0.00292212 0.00481099 0)
(-0.010977 0.00938551 0)
(-0.0263989 0.0111458 0)
(-0.0362269 0.00856067 0)
(-0.0453335 0.00638789 0)
(-0.0480373 0.000251055 0)
(-0.0442594 -0.00427572 0)
(-0.0350497 -0.0113931 0)
(-0.0160893 -0.0113059 0)
(-0.00414235 -0.0065611 0)
(-0.00382071 0.0146147 0)
(-0.0149736 0.0243405 0)
(-0.0345926 0.0269418 0)
(-0.0476344 0.0191897 0)
(-0.0598776 0.0125643 0)
(-0.0644592 -0.00253207 0)
(-0.0614053 -0.0144117 0)
(-0.0502898 -0.0318641 0)
(-0.0255388 -0.0340487 0)
(-0.00660283 -0.0227824 0)
(-0.00608866 0.0234163 0)
(-0.0208608 0.0398645 0)
(-0.0457533 0.0439806 0)
(-0.0627454 0.0335018 0)
(-0.0789158 0.0237256 0)
(-0.0871787 0.00157177 0)
(-0.0868865 -0.0177596 0)
(-0.075449 -0.0472942 0)
(-0.0434808 -0.0544696 0)
(-0.0118794 -0.0382428 0)
(-0.00718533 0.0417923 0)
(-0.0240788 0.0636759 0)
(-0.0526276 0.0693323 0)
(-0.0730818 0.0516157 0)
(-0.0945457 0.0374567 0)
(-0.1087 0.00447313 0)
(-0.115556 -0.0259644 0)
(-0.107414 -0.0764894 0)
(-0.0704319 -0.0982312 0)
(-0.0204369 -0.0790799 0)
(-0.0139666 0.0540688 0)
(-0.0368337 0.0845976 0)
(-0.0708642 0.0930988 0)
(-0.095698 0.0747126 0)
(-0.120934 0.0600921 0)
(-0.140799 0.0221969 0)
(-0.155754 -0.0177569 0)
(-0.152142 -0.0922966 0)
(-0.112368 -0.140309 0)
(-0.0362121 -0.128307 0)
(-0.0153344 0.0935249 0)
(-0.037538 0.119825 0)
(-0.0709308 0.129419 0)
(-0.093574 0.100253 0)
(-0.117836 0.083376 0)
(-0.135873 0.0373482 0)
(-0.157149 -0.0142439 0)
(-0.159018 -0.122264 0)
(-0.133185 -0.215569 0)
(-0.049893 -0.231222 0)
(-0.0397889 0.105173 0)
(-0.0695463 0.138661 0)
(-0.0823052 0.149437 0)
(-0.0873174 0.120408 0)
(-0.0877541 0.103902 0)
(-0.0846652 0.0608069 0)
(-0.0984483 0.00822436 0)
(-0.0992954 -0.115405 0)
(-0.108215 -0.245447 0)
(-0.05204 -0.309872 0)
(-0.0362688 0.206028 0)
(-0.0244779 0.160601 0)
(0.0106692 0.150734 0)
(0.0543412 0.103643 0)
(0.089682 0.0829781 0)
(0.13533 0.0453304 0)
(0.144036 0.00262593 0)
(0.158586 -0.114891 0)
(0.0821432 -0.261802 0)
(0.0189708 -0.398975 0)
(0.146892 0.160181 0)
(0.234999 0.0889071 0)
(0.384358 0.0723488 0)
(0.462542 0.0406092 0)
(0.524409 0.0262637 0)
(0.573882 0.0071077 0)
(0.574982 -0.00790017 0)
(0.572001 -0.0473638 0)
(0.412037 -0.0917656 0)
(0.220645 -0.195253 0)
)
;

boundaryField
{
    movingWall
    {
        type            fixedValue;
        value           uniform (1 0 0);
    }
    fixedWalls
    {
        type            noSlip;
    }
    frontAndBack
    {
        type            empty;
    }
}


// ************************************************************************* //
