/*--------------------------------*- C++ -*----------------------------------*\
| =========                 |                                                 |
| \\      /  F ield         | OpenFOAM: The Open Source CFD Toolbox           |
|  \\    /   O peration     | Version:  4.1                                   |
|   \\  /    A nd           | Web:      www.OpenFOAM.org                      |
|    \\/     M anipulation  |                                                 |
\*---------------------------------------------------------------------------*/
FoamFile
{
    version     2.0;
    format      ascii;
    class       volScalarField;
    location    "0.0042";
    object      p;
}
// * * * * * * * * * * * * * * * * * * * * * * * * * * * * * * * * * * * * * //

dimensions      [1 -1 -2 0 0 0 0];

internalField   nonuniform List<scalar> 
441
(
100000
99999.9
99999.7
99999.9
99999.9
99999.6
100000
100000
100000
100001
100001
100001
100001
100001
100001
100001
100001
100001
100001
100001
100001
100000
100000
100000
100000
100000
100000
100000
100000
100000
100000
100000
100000
100000
100000
100000
100001
100000
100001
100000
100001
100000
100000
99999.9
100000
99999.9
100000
99999.9
100000
100000
100000
100001
100001
100001
100001
100001
100001
100001
100001
100001
100001
100001
100001
100000
100000
100000
100000
100000
100000
100000
100000
100000
100000
100000
100000
100000
100001
100001
100001
100001
100001
100001
100001
100001
100000
99999.6
99999.8
99999.7
99999.8
99999.9
100000
100000
100000
100000
100000
100001
100001
100001
100001
100001
100001
100001
100001
100001
100001
99999
99999.6
99999.4
99999.6
99999.7
99999.8
99999.9
100000
100000
100000
100000
100001
100001
100001
100001
100001
100001
100001
100001
100001
100001
99998.6
99998.9
99999
99999.2
99999.3
99999.4
99999.6
99999.8
100000
100000
100000
100001
100001
100001
100001
100001
100001
100001
100001
100002
100000
99998.7
99998.8
99998.8
99998.9
99999
99999.2
99999.4
99999.6
99999.9
100000
100000
100001
100001
100001
100001
100001
100001
100002
100001
100002
100001
99998
99998
99998.1
99998.3
99998.4
99998.7
99999
99999.3
99999.6
100000
100000
100001
100001
100001
100002
100002
100002
100002
100002
100003
100002
99997.6
99997.6
99997.7
99997.9
99998
99998.4
99998.6
99999
99999.4
99999.9
100000
100001
100001
100002
100002
100002
100002
100003
100002
100003
100002
99996.5
99996.5
99996.6
99996.9
99997.1
99997.6
99998
99998.5
99999
99999.7
100000
100001
100002
100002
100003
100003
100003
100004
100004
100004
100004
99996
99996
99996
99996.4
99996.6
99997.1
99997.5
99998.1
99998.7
99999.4
100000
100001
100002
100002
100003
100003
100004
100004
100004
100005
100004
99994.3
99994.3
99994.4
99994.9
99995.2
99996
99996.5
99997.4
99998.2
99999.1
100000
100001
100002
100003
100004
100005
100005
100006
100006
100006
100004
99993.7
99993.7
99993.7
99994.3
99994.5
99995.3
99995.9
99996.8
99997.7
99998.7
99999.9
100001
100002
100003
100004
100005
100006
100006
100007
100007
100006
99990.9
99991.2
99991.1
99992.2
99992.5
99993.8
99994.5
99995.8
99996.9
99998.3
99999.7
100001
100003
100004
100006
100006
100009
100008
100010
100009
100007
99990.4
99990.7
99990.4
99991.5
99991.7
99993
99993.7
99995.2
99996.3
99997.8
99999.3
100001
100003
100004
100006
100007
100009
100009
100010
100010
100006
99985.2
99986.7
99986.1
99988.6
99988.8
99991.1
99992
99994
99995.5
99997.2
99999.1
100001
100003
100004
100007
100008
100013
100012
100019
100014
100030
99985.2
99986.7
99985.5
99987.9
99987.9
99990.3
99991.2
99993.3
99994.8
99996.6
99998.6
100000
100003
100004
100007
100008
100012
100012
100019
100018
100028
99973
99980.2
99978.5
99984.1
99984.3
99988.2
99989.5
99992.2
99994
99996.2
99998.3
100000
100003
100004
100008
100009
100015
100016
100027
100027
100041
99973.2
99981.4
99978.8
99983.8
99983.9
99987.6
99989
99991.8
99993.7
99995.8
99998
99999.5
100002
100003
100007
100007
100013
100013
100025
100027
100045
99930.8
99973.5
99971.7
99982.7
99982.7
99987.5
99988.8
99991.8
99993.7
99995.8
99998.1
99999.7
100003
100004
100008
100009
100017
100018
100037
100045
100100
)
;

boundaryField
{
    movingWall
    {
        type            zeroGradient;
    }
    fixedWalls
    {
        type            zeroGradient;
    }
    frontAndBack
    {
        type            empty;
    }
}


// ************************************************************************* //
