/*--------------------------------*- C++ -*----------------------------------*\
| =========                 |                                                 |
| \\      /  F ield         | OpenFOAM: The Open Source CFD Toolbox           |
|  \\    /   O peration     | Version:  4.1                                   |
|   \\  /    A nd           | Web:      www.OpenFOAM.org                      |
|    \\/     M anipulation  |                                                 |
\*---------------------------------------------------------------------------*/
FoamFile
{
    version     2.0;
    format      ascii;
    class       volVectorField;
    location    "0.1";
    object      U;
}
// * * * * * * * * * * * * * * * * * * * * * * * * * * * * * * * * * * * * * //

dimensions      [0 1 -1 0 0 0 0];

internalField   nonuniform List<vector> 
100
(
(-0.00183984 0.00121338 0)
(-0.00497454 0.00139979 0)
(-0.0121542 0.0015475 0)
(-0.0156251 0.000546284 0)
(-0.0193078 0.000167843 0)
(-0.0199203 -0.00126804 0)
(-0.0179455 -0.00184374 0)
(-0.0146409 -0.00325943 0)
(-0.00658453 -0.00326532 0)
(-0.00265322 -0.0029435 0)
(-0.00319241 0.0056566 0)
(-0.0104004 0.00883455 0)
(-0.0230904 0.00941077 0)
(-0.0298217 0.00637031 0)
(-0.0359696 0.00454834 0)
(-0.0369484 -0.000393417 0)
(-0.0334555 -0.00304574 0)
(-0.0270117 -0.00835895 0)
(-0.0130428 -0.00853498 0)
(-0.00420449 -0.00626591 0)
(-0.00386097 0.0148092 0)
(-0.0128115 0.0210748 0)
(-0.027835 0.0212276 0)
(-0.0360438 0.0129659 0)
(-0.0436889 0.00759306 0)
(-0.0452822 -0.00438172 0)
(-0.041987 -0.0116161 0)
(-0.0344757 -0.0243103 0)
(-0.0177888 -0.0262044 0)
(-0.00592264 -0.0205273 0)
(-0.00606006 0.0221834 0)
(-0.018038 0.0325428 0)
(-0.0372588 0.032895 0)
(-0.048027 0.0219314 0)
(-0.0577455 0.0143918 0)
(-0.0606673 -0.00224732 0)
(-0.0579075 -0.0130339 0)
(-0.0491042 -0.0324724 0)
(-0.0277872 -0.0363174 0)
(-0.00967289 -0.0294189 0)
(-0.00711414 0.0391476 0)
(-0.0210706 0.0519443 0)
(-0.0432037 0.0517598 0)
(-0.0560576 0.0326864 0)
(-0.0684967 0.0206682 0)
(-0.0736401 -0.00532427 0)
(-0.0738153 -0.0230957 0)
(-0.0656743 -0.0558241 0)
(-0.0416975 -0.0661963 0)
(-0.0153697 -0.0590816 0)
(-0.0140262 0.0498138 0)
(-0.0348604 0.0679934 0)
(-0.0628424 0.0681274 0)
(-0.0799101 0.0466792 0)
(-0.0948027 0.0329301 0)
(-0.103188 0.00288145 0)
(-0.107586 -0.0194686 0)
(-0.100536 -0.064244 0)
(-0.0724163 -0.0848908 0)
(-0.0278193 -0.0852661 0)
(-0.0157259 0.0889619 0)
(-0.0389909 0.100041 0)
(-0.0689811 0.0980703 0)
(-0.0871068 0.063222 0)
(-0.103819 0.0447428 0)
(-0.113628 0.00539283 0)
(-0.124992 -0.0255852 0)
(-0.122256 -0.0938012 0)
(-0.100539 -0.140157 0)
(-0.0408382 -0.162531 0)
(-0.0404788 0.102731 0)
(-0.0753973 0.119776 0)
(-0.0921256 0.116558 0)
(-0.102746 0.080483 0)
(-0.108182 0.0610596 0)
(-0.111593 0.0235968 0)
(-0.126779 -0.0080298 0)
(-0.123499 -0.0879224 0)
(-0.118779 -0.162233 0)
(-0.0508044 -0.224299 0)
(-0.0357939 0.207738 0)
(-0.0305602 0.149818 0)
(-0.00810077 0.128634 0)
(0.0179218 0.0768859 0)
(0.0352901 0.0552885 0)
(0.0605444 0.0205952 0)
(0.0557805 -0.012579 0)
(0.067796 -0.106461 0)
(0.0172322 -0.213863 0)
(0.00615638 -0.340909 0)
(0.149484 0.163293 0)
(0.237207 0.0895584 0)
(0.377552 0.0700057 0)
(0.441336 0.0365857 0)
(0.48759 0.0219589 0)
(0.521341 0.00344755 0)
(0.509818 -0.00885219 0)
(0.503216 -0.0448545 0)
(0.356441 -0.087112 0)
(0.2053 -0.187118 0)
)
;

boundaryField
{
    movingWall
    {
        type            fixedValue;
        value           uniform (1 0 0);
    }
    fixedWalls
    {
        type            noSlip;
    }
    frontAndBack
    {
        type            empty;
    }
}


// ************************************************************************* //
