/*--------------------------------*- C++ -*----------------------------------*\
| =========                 |                                                 |
| \\      /  F ield         | OpenFOAM: The Open Source CFD Toolbox           |
|  \\    /   O peration     | Version:  4.1                                   |
|   \\  /    A nd           | Web:      www.OpenFOAM.org                      |
|    \\/     M anipulation  |                                                 |
\*---------------------------------------------------------------------------*/
FoamFile
{
    version     2.0;
    format      ascii;
    class       volVectorField;
    location    "0.172";
    object      U;
}
// * * * * * * * * * * * * * * * * * * * * * * * * * * * * * * * * * * * * * //

dimensions      [0 1 -1 0 0 0 0];

internalField   nonuniform List<vector> 
100
(
(-0.00138104 0.000728958 0)
(-0.00415756 0.00108122 0)
(-0.0119063 0.00145061 0)
(-0.0163709 0.000667386 0)
(-0.0212229 0.000420906 0)
(-0.0226614 -0.000966946 0)
(-0.0207542 -0.00164257 0)
(-0.0164915 -0.00315587 0)
(-0.00669941 -0.003044 0)
(-0.00222638 -0.00236565 0)
(-0.00293648 0.00486112 0)
(-0.010943 0.00937511 0)
(-0.0262269 0.0110617 0)
(-0.0358534 0.00843297 0)
(-0.0447676 0.00627426 0)
(-0.0473322 0.000209408 0)
(-0.0435596 -0.00418332 0)
(-0.0345251 -0.0111854 0)
(-0.0158895 -0.0111082 0)
(-0.0041621 -0.00654602 0)
(-0.00381885 0.0146094 0)
(-0.0148328 0.0241572 0)
(-0.0341889 0.0265957 0)
(-0.0469025 0.0187716 0)
(-0.05883 0.0122034 0)
(-0.0631654 -0.00270335 0)
(-0.0600639 -0.0142536 0)
(-0.0491706 -0.031384 0)
(-0.024984 -0.033523 0)
(-0.00657666 -0.0226554 0)
(-0.00607952 0.0233275 0)
(-0.0206691 0.0394546 0)
(-0.0452277 0.0433114 0)
(-0.061796 0.0327337 0)
(-0.077513 0.0230568 0)
(-0.0853447 0.0012386 0)
(-0.0848246 -0.0174839 0)
(-0.0735292 -0.0462941 0)
(-0.0423399 -0.0531608 0)
(-0.0117566 -0.0376422 0)
(-0.00717446 0.0415862 0)
(-0.0238905 0.0629753 0)
(-0.0520777 0.0682314 0)
(-0.0720375 0.0503193 0)
(-0.0928846 0.0362121 0)
(-0.106363 0.00363528 0)
(-0.112708 -0.0258955 0)
(-0.104547 -0.0750981 0)
(-0.0684997 -0.0958975 0)
(-0.0201511 -0.0776967 0)
(-0.0139697 0.0537862 0)
(-0.0367556 0.0836542 0)
(-0.0705157 0.0915826 0)
(-0.0949323 0.0728442 0)
(-0.119553 0.0581451 0)
(-0.138695 0.0206879 0)
(-0.153008 -0.0179975 0)
(-0.149251 -0.0903709 0)
(-0.110188 -0.136375 0)
(-0.0357678 -0.125461 0)
(-0.0153671 0.0932408 0)
(-0.0377334 0.118771 0)
(-0.071128 0.127631 0)
(-0.0937116 0.0979247 0)
(-0.117737 0.0807927 0)
(-0.135496 0.0351402 0)
(-0.15639 -0.0149752 0)
(-0.158039 -0.120332 0)
(-0.13215 -0.210778 0)
(-0.0494527 -0.22719 0)
(-0.0398538 0.105118 0)
(-0.070044 0.137885 0)
(-0.0832806 0.147861 0)
(-0.088882 0.118248 0)
(-0.0899355 0.101438 0)
(-0.0875364 0.0586378 0)
(-0.101697 0.00735849 0)
(-0.102243 -0.113793 0)
(-0.109906 -0.240995 0)
(-0.0520715 -0.305521 0)
(-0.03625 0.206283 0)
(-0.0246991 0.160444 0)
(0.00983606 0.149993 0)
(0.0525895 0.102501 0)
(0.0868351 0.0816702 0)
(0.131292 0.0441442 0)
(0.139128 0.00190564 0)
(0.153608 -0.114648 0)
(0.078515 -0.260057 0)
(0.018272 -0.396773 0)
(0.147011 0.160339 0)
(0.235281 0.0890055 0)
(0.38443 0.0723317 0)
(0.462109 0.0404957 0)
(0.523267 0.0261158 0)
(0.57203 0.00699427 0)
(0.572546 -0.00785366 0)
(0.569471 -0.0470942 0)
(0.410063 -0.0915428 0)
(0.220124 -0.195134 0)
)
;

boundaryField
{
    movingWall
    {
        type            fixedValue;
        value           uniform (1 0 0);
    }
    fixedWalls
    {
        type            noSlip;
    }
    frontAndBack
    {
        type            empty;
    }
}


// ************************************************************************* //
