/*--------------------------------*- C++ -*----------------------------------*\
| =========                 |                                                 |
| \\      /  F ield         | OpenFOAM: The Open Source CFD Toolbox           |
|  \\    /   O peration     | Version:  4.1                                   |
|   \\  /    A nd           | Web:      www.OpenFOAM.org                      |
|    \\/     M anipulation  |                                                 |
\*---------------------------------------------------------------------------*/
FoamFile
{
    version     2.0;
    format      ascii;
    class       volVectorField;
    location    "0.084";
    object      U;
}
// * * * * * * * * * * * * * * * * * * * * * * * * * * * * * * * * * * * * * //

dimensions      [0 1 -1 0 0 0 0];

internalField   nonuniform List<vector> 
100
(
(-0.00197891 0.001452 0)
(-0.00518803 0.00158563 0)
(-0.0120419 0.0016636 0)
(-0.0152316 0.00061763 0)
(-0.0185498 0.000207429 0)
(-0.0189894 -0.00122168 0)
(-0.0170262 -0.00177767 0)
(-0.0139745 -0.00314927 0)
(-0.00648678 -0.00319776 0)
(-0.00268517 -0.00298196 0)
(-0.00323404 0.00576566 0)
(-0.0100883 0.00839031 0)
(-0.0217364 0.0086811 0)
(-0.0276603 0.00564735 0)
(-0.0330153 0.00396556 0)
(-0.033697 -0.000601072 0)
(-0.0303824 -0.00284617 0)
(-0.0246785 -0.00763691 0)
(-0.0121392 -0.00789321 0)
(-0.00409901 -0.00615885 0)
(-0.0038568 0.0147925 0)
(-0.012137 0.0198785 0)
(-0.0256883 0.0195093 0)
(-0.0327386 0.0114459 0)
(-0.0392579 0.00654498 0)
(-0.0403515 -0.0044564 0)
(-0.037164 -0.0106375 0)
(-0.0306162 -0.0220353 0)
(-0.0159447 -0.0239097 0)
(-0.00561181 -0.0195715 0)
(-0.00603528 0.021607 0)
(-0.0171682 0.0299471 0)
(-0.0345816 0.0295339 0)
(-0.0438409 0.0189242 0)
(-0.0520401 0.0121846 0)
(-0.0540596 -0.00283993 0)
(-0.0510714 -0.0117526 0)
(-0.0431832 -0.028749 0)
(-0.0243916 -0.0320963 0)
(-0.00898179 -0.0271447 0)
(-0.00709516 0.038264 0)
(-0.0200905 0.0481214 0)
(-0.040119 0.0467483 0)
(-0.0510605 0.0281501 0)
(-0.0613822 0.0171967 0)
(-0.064894 -0.00654237 0)
(-0.0640256 -0.0214475 0)
(-0.0563538 -0.050124 0)
(-0.0353711 -0.0586647 0)
(-0.0138907 -0.0540587 0)
(-0.0139764 0.0482238 0)
(-0.0337615 0.0623246 0)
(-0.0592905 0.0607548 0)
(-0.0739935 0.0396607 0)
(-0.0861777 0.0269917 0)
(-0.0921042 -0.000354506 0)
(-0.094342 -0.0187307 0)
(-0.0868118 -0.0570079 0)
(-0.061732 -0.0727549 0)
(-0.0251675 -0.075126 0)
(-0.0157808 0.0869738 0)
(-0.0384972 0.0927713 0)
(-0.0661583 0.0882781 0)
(-0.0820311 0.0536405 0)
(-0.0958864 0.0361034 0)
(-0.103005 -0.000454522 0)
(-0.111223 -0.0266167 0)
(-0.107222 -0.0855963 0)
(-0.0875089 -0.121503 0)
(-0.0375192 -0.144069 0)
(-0.0403883 0.100655 0)
(-0.0754233 0.111226 0)
(-0.0914782 0.10459 0)
(-0.102053 0.0683969 0)
(-0.106975 0.0495891 0)
(-0.110422 0.0146066 0)
(-0.124115 -0.0116681 0)
(-0.120066 -0.0798805 0)
(-0.114107 -0.13834 0)
(-0.0498134 -0.197593 0)
(-0.035458 0.20571 0)
(-0.0331571 0.142041 0)
(-0.0149309 0.118065 0)
(0.00569002 0.066708 0)
(0.0189014 0.0460602 0)
(0.0389726 0.0132047 0)
(0.03197 -0.0161257 0)
(0.0432199 -0.100681 0)
(0.000716446 -0.193044 0)
(0.00207516 -0.316778 0)
(0.150015 0.16334 0)
(0.234833 0.088187 0)
(0.369425 0.0675628 0)
(0.426306 0.0339993 0)
(0.466904 0.0197089 0)
(0.494989 0.00169743 0)
(0.479923 -0.0097814 0)
(0.472319 -0.044746 0)
(0.33189 -0.0844499 0)
(0.1982 -0.181505 0)
)
;

boundaryField
{
    movingWall
    {
        type            fixedValue;
        value           uniform (1 0 0);
    }
    fixedWalls
    {
        type            noSlip;
    }
    frontAndBack
    {
        type            empty;
    }
}


// ************************************************************************* //
