/*--------------------------------*- C++ -*----------------------------------*\
| =========                 |                                                 |
| \\      /  F ield         | OpenFOAM: The Open Source CFD Toolbox           |
|  \\    /   O peration     | Version:  4.1                                   |
|   \\  /    A nd           | Web:      www.OpenFOAM.org                      |
|    \\/     M anipulation  |                                                 |
\*---------------------------------------------------------------------------*/
FoamFile
{
    version     2.0;
    format      ascii;
    class       volVectorField;
    location    "0.0727";
    object      U;
}
// * * * * * * * * * * * * * * * * * * * * * * * * * * * * * * * * * * * * * //

dimensions      [0 1 -1 0 0 0 0];

internalField   nonuniform List<vector> 
441
(
(0.00360171 -0.00473021 0)
(0.00936222 -0.00254091 0)
(-0.00063523 -2.1927e-165 0)
(0.00188722 -3.17097e-266 0)
(-0.00842336 -0.00754939 0)
(-0.00188722 -2.95512e-232 0)
(-1.11956e-202 -5.32986e-203 0)
(-1.33234e-203 -6.97256e-228 0)
(-1.65811e-212 -3.03378e-213 0)
(-0.00591648 8.79553e-266 0)
(-0.0723448 0.0236675 0)
(-0.0911297 0.0124368 0)
(-0.103009 0.00574915 0)
(-0.0911536 0.000474494 0)
(-0.0756547 -0.00151151 0)
(-0.0511565 -0.00287907 0)
(-0.0298792 -0.00210354 0)
(-0.0105861 -0.00163812 0)
(0.00146637 0.000593797 0)
(0.00379045 0.00133315 0)
(0.00440399 0.00286177 0)
(0.00364441 -0.0080454 0)
(-0.00127372 0.00671654 0)
(-0.0271729 0.00823274 0)
(-0.0580659 0.0106145 0)
(-0.103976 0.0104739 0)
(-0.147025 -0.00343739 0)
(-0.18743 -0.000204749 0)
(-0.226175 0.00157245 0)
(-0.260569 0.0126996 0)
(-0.29535 0.0643779 0)
(-0.319236 0.0594564 0)
(-0.314094 0.0186295 0)
(-0.300519 -0.00628666 0)
(-0.260737 -0.0285899 0)
(-0.213833 -0.0386397 0)
(-0.154077 -0.0441828 0)
(-0.0996861 -0.0382792 0)
(-0.0506728 -0.0309716 0)
(-0.0170151 -0.0144592 0)
(-0.00209229 -0.00500254 0)
(0.00472485 0.00555638 0)
(0.00728376 -0.00761579 0)
(-0.00528089 0.0278894 0)
(-0.0529637 0.055411 0)
(-0.117205 0.0743424 0)
(-0.19538 0.0802698 0)
(-0.276165 0.0794289 0)
(-0.36275 0.076379 0)
(-0.432895 0.0707525 0)
(-0.501928 0.0665262 0)
(-0.535693 0.0631137 0)
(-0.532007 0.0433282 0)
(-0.51518 -0.00506952 0)
(-0.48072 -0.046928 0)
(-0.419174 -0.0860247 0)
(-0.345513 -0.107209 0)
(-0.255625 -0.117314 0)
(-0.17181 -0.104328 0)
(-0.0943462 -0.084827 0)
(-0.039199 -0.0468864 0)
(-0.00888391 -0.0208485 0)
(0.0061401 0.00589872 0)
(0.00620496 -0.0103501 0)
(-0.0155369 0.0686871 0)
(-0.0935825 0.120146 0)
(-0.185321 0.155393 0)
(-0.293191 0.169798 0)
(-0.401559 0.166634 0)
(-0.508158 0.158193 0)
(-0.600327 0.141631 0)
(-0.676268 0.117879 0)
(-0.721198 0.0917999 0)
(-0.730629 0.0386835 0)
(-0.708676 -0.0337781 0)
(-0.66201 -0.102446 0)
(-0.580683 -0.164971 0)
(-0.482709 -0.20202 0)
(-0.363018 -0.219413 0)
(-0.249562 -0.198996 0)
(-0.141758 -0.165259 0)
(-0.0634957 -0.0990464 0)
(-0.0159121 -0.0517292 0)
(0.00783444 0.00319568 0)
(6.71341e-165 0.00155124 0)
(-0.023434 0.127228 0)
(-0.135421 0.224414 0)
(-0.249784 0.272527 0)
(-0.385701 0.295422 0)
(-0.517666 0.29258 0)
(-0.648948 0.273858 0)
(-0.760174 0.237782 0)
(-0.85277 0.186686 0)
(-0.907841 0.11817 0)
(-0.925104 0.0312206 0)
(-0.904566 -0.073436 0)
(-0.850565 -0.174155 0)
(-0.753848 -0.265683 0)
(-0.633506 -0.323787 0)
(-0.482297 -0.351359 0)
(-0.336754 -0.324096 0)
(-0.191895 -0.272025 0)
(-0.087968 -0.171016 0)
(-0.0178178 -0.0930584 0)
(0.0144388 -0.0013845 0)
(-5.44578e-266 0.00559946 0)
(-0.086393 0.208783 0)
(-0.189014 0.344539 0)
(-0.326196 0.407498 0)
(-0.474839 0.437558 0)
(-0.627161 0.430949 0)
(-0.774335 0.401328 0)
(-0.904414 0.345707 0)
(-1.01211 0.266419 0)
(-1.08433 0.16335 0)
(-1.11862 0.035706 0)
(-1.10637 -0.109345 0)
(-1.05334 -0.252914 0)
(-0.945833 -0.383661 0)
(-0.805811 -0.473118 0)
(-0.621665 -0.518654 0)
(-0.439846 -0.488343 0)
(-0.251347 -0.417207 0)
(-0.116253 -0.271138 0)
(-0.0193847 -0.157368 0)
(0.0161284 0.00112526 0)
(-0.0223978 0.091124 0)
(-0.120354 0.312716 0)
(-0.238652 0.464586 0)
(-0.389653 0.556538 0)
(-0.556865 0.595575 0)
(-0.727322 0.590621 0)
(-0.894566 0.5503 0)
(-1.04456 0.474625 0)
(-1.17317 0.366363 0)
(-1.26585 0.224425 0)
(-1.31999 0.0537491 0)
(-1.32239 -0.139035 0)
(-1.27686 -0.33369 0)
(-1.16463 -0.514164 0)
(-1.00904 -0.646491 0)
(-0.790587 -0.719215 0)
(-0.569618 -0.692134 0)
(-0.324157 -0.598081 0)
(-0.15519 -0.399722 0)
(-0.00645861 -0.227291 0)
(5.92214e-266 -0.00403209 0)
(-0.0164976 0.150777 0)
(-0.115195 0.42619 0)
(-0.261161 0.614397 0)
(-0.432424 0.72649 0)
(-0.619417 0.775462 0)
(-0.809045 0.76894 0)
(-0.994985 0.718871 0)
(-1.16626 0.624174 0)
(-1.31724 0.488125 0)
(-1.43512 0.309604 0)
(-1.51515 0.0926672 0)
(-1.53999 -0.153563 0)
(-1.51118 -0.41016 0)
(-1.40329 -0.65373 0)
(-1.23922 -0.846477 0)
(-0.990307 -0.962243 0)
(-0.727178 -0.953128 0)
(-0.419308 -0.837986 0)
(-0.202046 -0.584213 0)
(-0.00344897 -0.322079 0)
(2.54451e-24 -1.10119e-24 0)
(-0.0146614 0.219255 0)
(-0.119013 0.555531 0)
(-0.281808 0.780212 0)
(-0.468225 0.912944 0)
(-0.671949 0.970879 0)
(-0.877423 0.964574 0)
(-1.08067 0.906592 0)
(-1.27163 0.795711 0)
(-1.44528 0.634958 0)
(-1.58962 0.421669 0)
(-1.69845 0.1592 0)
(-1.75229 -0.143559 0)
(-1.74911 -0.468967 0)
(-1.65712 -0.787459 0)
(-1.49621 -1.0573 0)
(-1.22563 -1.23448 0)
(-0.924134 -1.25948 0)
(-0.547566 -1.12855 0)
(-0.271893 -0.807865 0)
(-0.00486307 -0.437192 0)
(1.03815e-76 -6.36127e-25 0)
(-0.0128043 0.285037 0)
(-0.117269 0.695041 0)
(-0.290097 0.964341 0)
(-0.485937 1.1172 0)
(-0.700376 1.18508 0)
(-0.916464 1.1776 0)
(-1.13113 1.1133 0)
(-1.33712 0.988334 0)
(-1.52914 0.806268 0)
(-1.69807 0.562032 0)
(-1.83609 0.255644 0)
(-1.92345 -0.104112 0)
(-1.9545 -0.504684 0)
(-1.89178 -0.909304 0)
(-1.74956 -1.27713 0)
(-1.47344 -1.54032 0)
(-1.14313 -1.62968 0)
(-0.699026 -1.50059 0)
(-0.355401 -1.12128 0)
(-0.00690151 -0.609275 0)
(2.89051e-164 -2.59538e-77 0)
(-0.0129355 0.345911 0)
(-0.119149 0.831075 0)
(-0.298393 1.14657 0)
(-0.498518 1.32095 0)
(-0.716291 1.39969 0)
(-0.934793 1.39328 0)
(-1.1513 1.32611 0)
(-1.36271 1.19221 0)
(-1.56324 0.995466 0)
(-1.74894 0.727738 0)
(-1.91027 0.385162 0)
(-2.03119 -0.0255794 0)
(-2.10158 -0.498653 0)
(-2.08224 -0.993357 0)
(-1.97849 -1.47227 0)
(-1.72245 -1.84476 0)
(-1.38653 -2.02896 0)
(-0.891941 -1.92458 0)
(-0.480092 -1.48831 0)
(-0.0791896 -0.805753 0)
(1.7713e-265 0.0131683 0)
(-0.0136082 0.418027 0)
(-0.117217 0.982669 0)
(-0.295677 1.3452 0)
(-0.491237 1.53579 0)
(-0.701506 1.62249 0)
(-0.910702 1.61254 0)
(-1.11557 1.54184 0)
(-1.3184 1.39979 0)
(-1.51254 1.19263 0)
(-1.70114 0.908316 0)
(-1.87377 0.537945 0)
(-2.02111 0.0861533 0)
(-2.13036 -0.453084 0)
(-2.16416 -1.03465 0)
(-2.11843 -1.63578 0)
(-1.91264 -2.13889 0)
(-1.60031 -2.45902 0)
(-1.07416 -2.42141 0)
(-0.580112 -1.92818 0)
(-0.0752436 -1.1091 0)
(0.0526734 -0.0749114 0)
(-0.0170236 0.47236 0)
(-0.122059 1.1102 0)
(-0.30143 1.51769 0)
(-0.4882 1.72347 0)
(-0.680099 1.81734 0)
(-0.866577 1.80476 0)
(-1.04135 1.73285 0)
(-1.21663 1.58763 0)
(-1.38238 1.37793 0)
(-1.55354 1.08843 0)
(-1.71672 0.705857 0)
(-1.87631 0.231444 0)
(-2.0145 -0.352979 0)
(-2.10646 -1.00451 0)
(-2.13453 -1.71842 0)
(-2.01349 -2.36466 0)
(-1.77279 -2.86084 0)
(-1.24061 -2.95368 0)
(-0.711767 -2.48078 0)
(0.0417731 -1.44566 0)
(2.43172e-231 -0.0131683 0)
(-0.0217017 0.560056 0)
(-0.125307 1.27013 0)
(-0.298368 1.71521 0)
(-0.466018 1.91557 0)
(-0.625679 2.00404 0)
(-0.773597 1.97417 0)
(-0.89984 1.89389 0)
(-1.02722 1.74093 0)
(-1.14195 1.53033 0)
(-1.27134 1.24269 0)
(-1.40008 0.860663 0)
(-1.54787 0.38396 0)
(-1.69618 -0.222999 0)
(-1.83736 -0.91504 0)
(-1.94818 -1.72777 0)
(-1.94888 -2.50485 0)
(-1.84001 -3.23048 0)
(-1.40815 -3.50062 0)
(-0.892171 -3.20424 0)
(-0.00315514 -1.85836 0)
(5.79225e-202 4.57209e-184 0)
(-0.0377742 0.61242 0)
(-0.157297 1.38081 0)
(-0.33388 1.85465 0)
(-0.480712 2.04535 0)
(-0.590592 2.12344 0)
(-0.681634 2.07561 0)
(-0.732451 1.98634 0)
(-0.787423 1.82863 0)
(-0.822071 1.62267 0)
(-0.883241 1.34742 0)
(-0.946746 0.983827 0)
(-1.05709 0.530166 0)
(-1.18467 -0.0601775 0)
(-1.36206 -0.748392 0)
(-1.54037 -1.59881 0)
(-1.69885 -2.46946 0)
(-1.75894 -3.38512 0)
(-1.54146 -3.91014 0)
(-1.11209 -3.86235 0)
(-0.0113222 -2.36806 0)
(1.82884e-183 -1.03924e-184 0)
(-0.0564949 0.763248 0)
(-0.192257 1.57056 0)
(-0.361089 2.04815 0)
(-0.472833 2.17373 0)
(-0.51576 2.21222 0)
(-0.531609 2.11684 0)
(-0.488788 2.00406 0)
(-0.451393 1.83146 0)
(-0.3856 1.62808 0)
(-0.354429 1.36885 0)
(-0.32681 1.03457 0)
(-0.366292 0.624347 0)
(-0.439311 0.0803914 0)
(-0.608914 -0.555827 0)
(-0.827904 -1.39401 0)
(-1.12147 -2.28265 0)
(-1.40629 -3.39257 0)
(-1.51521 -4.15423 0)
(-1.40498 -4.75141 0)
(-0.464687 -3.01764 0)
(4.3953e-254 -4.57209e-184 0)
(-0.122263 0.847351 0)
(-0.325768 1.67232 0)
(-0.486733 2.1302 0)
(-0.55032 2.1904 0)
(-0.476002 2.18158 0)
(-0.3815 2.04377 0)
(-0.200754 1.90718 0)
(-0.0409542 1.72454 0)
(0.155812 1.52738 0)
(0.300761 1.29117 0)
(0.44382 0.998022 0)
(0.492431 0.648737 0)
(0.505496 0.186221 0)
(0.359011 -0.35035 0)
(0.154789 -1.07821 0)
(-0.297114 -1.87998 0)
(-0.742532 -2.96523 0)
(-1.475 -3.91034 0)
(-1.65662 -4.82249 0)
(-2.07093 -3.84937 0)
(-2.58122e-264 -0.215428 0)
(-0.178397 1.23288 0)
(-0.421463 1.9394 0)
(-0.515749 2.29511 0)
(-0.477967 2.16323 0)
(-0.249231 2.05723 0)
(-0.0105469 1.84117 0)
(0.325233 1.6701 0)
(0.623364 1.475 0)
(0.956878 1.28853 0)
(1.22331 1.08271 0)
(1.48453 0.842455 0)
(1.63558 0.567737 0)
(1.74675 0.210504 0)
(1.67583 -0.195597 0)
(1.53013 -0.748736 0)
(1.09027 -1.36898 0)
(0.559087 -2.24606 0)
(-0.365834 -3.1962 0)
(-1.09234 -4.24554 0)
(-1.84377 -4.52484 0)
(-0.86171 -2.3135 0)
(-0.400368 1.41295 0)
(-0.727241 1.981 0)
(-0.52528 2.18092 0)
(-0.250858 1.90693 0)
(0.298113 1.7151 0)
(0.754754 1.46131 0)
(1.30315 1.27522 0)
(1.75473 1.09083 0)
(2.22581 0.929389 0)
(2.59699 0.766488 0)
(2.95391 0.588187 0)
(3.1773 0.395252 0)
(3.36353 0.149436 0)
(3.33925 -0.118089 0)
(3.26329 -0.489071 0)
(2.83881 -0.887007 0)
(2.36861 -1.50995 0)
(1.34942 -2.22934 0)
(0.448437 -3.34972 0)
(-0.710907 -4.00211 0)
(-0.700579 -2.96342 0)
(-0.256792 2.4224 0)
(-0.102821 2.05897 0)
(0.683329 1.86916 0)
(1.32756 1.33177 0)
(2.13957 1.07176 0)
(2.76226 0.829105 0)
(3.41213 0.676166 0)
(3.92186 0.548041 0)
(4.4198 0.446721 0)
(4.80085 0.354317 0)
(5.15555 0.260603 0)
(5.37638 0.163488 0)
(5.56103 0.0452661 0)
(5.5505 -0.0825279 0)
(5.5021 -0.258268 0)
(5.13965 -0.452779 0)
(4.75298 -0.788087 0)
(3.82393 -1.24374 0)
(2.86243 -2.25349 0)
(1.0905 -3.32983 0)
(-0.0458838 -3.79919 0)
(1.6676 1.66991 0)
(2.70433 0.974982 0)
(4.54506 0.748502 0)
(5.38321 0.423621 0)
(6.24908 0.285964 0)
(6.75727 0.177484 0)
(7.2349 0.120743 0)
(7.55674 0.0805425 0)
(7.85372 0.054344 0)
(8.05605 0.0340385 0)
(8.23872 0.0159354 0)
(8.32954 -0.00115136 0)
(8.40405 -0.022179 0)
(8.34875 -0.0430251 0)
(8.28994 -0.0784882 0)
(8.00486 -0.111652 0)
(7.75026 -0.20102 0)
(6.99678 -0.293685 0)
(6.2631 -0.625644 0)
(4.0462 -0.997764 0)
(2.00577 -1.81847 0)
)
;

boundaryField
{
    movingWall
    {
        type            fixedValue;
        value           uniform (10 0 0);
    }
    fixedWalls
    {
        type            noSlip;
    }
    frontAndBack
    {
        type            empty;
    }
}


// ************************************************************************* //
