/*--------------------------------*- C++ -*----------------------------------*\
| =========                 |                                                 |
| \\      /  F ield         | OpenFOAM: The Open Source CFD Toolbox           |
|  \\    /   O peration     | Version:  4.1                                   |
|   \\  /    A nd           | Web:      www.OpenFOAM.org                      |
|    \\/     M anipulation  |                                                 |
\*---------------------------------------------------------------------------*/
FoamFile
{
    version     2.0;
    format      ascii;
    class       volVectorField;
    location    "5.25";
    object      U;
}
// * * * * * * * * * * * * * * * * * * * * * * * * * * * * * * * * * * * * * //

dimensions      [0 1 -1 0 0 0 0];

internalField   nonuniform List<vector> 
400
(
(0.000168842 -0.000165995 0)
(-0.000130702 9.19184e-05 0)
(-0.00147651 0.000315078 0)
(-0.00349286 0.000477817 0)
(-0.00596749 0.000555718 0)
(-0.00859631 0.000580041 0)
(-0.0111793 0.000555871 0)
(-0.0135019 0.000487718 0)
(-0.0153641 0.000370439 0)
(-0.016557 0.000202067 0)
(-0.0168935 -1.25973e-05 0)
(-0.016243 -0.000255177 0)
(-0.0145793 -0.000493179 0)
(-0.0120279 -0.000681407 0)
(-0.00887472 -0.000774662 0)
(-0.00557173 -0.000734443 0)
(-0.00261771 -0.000559287 0)
(-0.000535112 -0.00026384 0)
(0.0004434 4.33683e-05 0)
(0.000282705 0.000268209 0)
(-9.2803e-05 0.000121839 0)
(-0.00190835 0.00181029 0)
(-0.00592184 0.00335666 0)
(-0.0113127 0.00445501 0)
(-0.0176298 0.0050112 0)
(-0.024221 0.00511035 0)
(-0.0305956 0.00479067 0)
(-0.0362352 0.00407193 0)
(-0.0406583 0.00295171 0)
(-0.0433946 0.00145156 0)
(-0.0440509 -0.000351694 0)
(-0.0423805 -0.00229834 0)
(-0.0383707 -0.00414435 0)
(-0.0323244 -0.00558511 0)
(-0.0248704 -0.00632117 0)
(-0.0169647 -0.00613065 0)
(-0.00966447 -0.00499214 0)
(-0.00407238 -0.00308866 0)
(-0.000713509 -0.00101294 0)
(0.000143988 0.000475308 0)
(-0.000382543 0.00157444 0)
(-0.00393704 0.00592829 0)
(-0.0106116 0.00956813 0)
(-0.019074 0.0120588 0)
(-0.0286893 0.0132806 0)
(-0.038562 0.0133663 0)
(-0.0480054 0.01239 0)
(-0.0562921 0.0103939 0)
(-0.0627495 0.00740109 0)
(-0.0667343 0.00349964 0)
(-0.067719 -0.00109172 0)
(-0.0653758 -0.00597476 0)
(-0.0596815 -0.0105727 0)
(-0.0510205 -0.0141868 0)
(-0.0402056 -0.0161315 0)
(-0.0285034 -0.0159025 0)
(-0.0173559 -0.0134244 0)
(-0.00834953 -0.00911664 0)
(-0.0023263 -0.00418734 0)
(-3.58925e-05 -0.000162354 0)
(-0.000663637 0.00405675 0)
(-0.00591659 0.0121535 0)
(-0.01514 0.0184115 0)
(-0.0264391 0.0225028 0)
(-0.0390063 0.0244036 0)
(-0.0517546 0.0243306 0)
(-0.0638729 0.0224058 0)
(-0.0745 0.0186978 0)
(-0.0828397 0.0132633 0)
(-0.0881261 0.006272 0)
(-0.0897163 -0.00189241 0)
(-0.0871774 -0.0105597 0)
(-0.080402 -0.0187705 0)
(-0.069739 -0.0253574 0)
(-0.0560489 -0.029145 0)
(-0.0407996 -0.0292256 0)
(-0.0257725 -0.0253636 0)
(-0.0131106 -0.0181675 0)
(-0.00410538 -0.00948334 0)
(-0.000213657 -0.00163955 0)
(-0.000904307 0.00754554 0)
(-0.00770642 0.0204695 0)
(-0.0192901 0.029865 0)
(-0.0332043 0.0357423 0)
(-0.0484778 0.0383179 0)
(-0.0638664 0.0379524 0)
(-0.0784861 0.0348395 0)
(-0.0913976 0.0290766 0)
(-0.101728 0.0207497 0)
(-0.108615 0.0101004 0)
(-0.111291 -0.00233281 0)
(-0.109167 -0.0156117 0)
(-0.101952 -0.0283751 0)
(-0.0898277 -0.0389226 0)
(-0.0735638 -0.0454585 0)
(-0.0547338 -0.0464799 0)
(-0.0354564 -0.0413798 0)
(-0.0185858 -0.0308167 0)
(-0.006079 -0.0172818 0)
(-0.000376416 -0.00404096 0)
(-0.0011142 0.0118953 0)
(-0.00928433 0.0306167 0)
(-0.0229781 0.0436171 0)
(-0.0392416 0.0514443 0)
(-0.0569624 0.0547027 0)
(-0.0747766 0.0539709 0)
(-0.0917715 0.0495463 0)
(-0.106979 0.0415548 0)
(-0.119491 0.0300908 0)
(-0.128372 0.0154289 0)
(-0.132723 -0.00178933 0)
(-0.131749 -0.0204093 0)
(-0.124884 -0.0386947 0)
(-0.111997 -0.0543751 0)
(-0.0935929 -0.0648903 0)
(-0.0711982 -0.0678745 0)
(-0.0472118 -0.0619982 0)
(-0.0253501 -0.0476855 0)
(-0.00852261 -0.0280285 0)
(-0.000573602 -0.00748212 0)
(-0.00128788 0.0170012 0)
(-0.0106109 0.0423816 0)
(-0.0261008 0.0594152 0)
(-0.0443759 0.0693597 0)
(-0.0642107 0.0733458 0)
(-0.0841629 0.0722474 0)
(-0.103332 0.0665024 0)
(-0.120769 0.056264 0)
(-0.135577 0.0416045 0)
(-0.146785 0.0227724 0)
(-0.15338 0.000429215 0)
(-0.154347 -0.0241505 0)
(-0.148779 -0.0489348 0)
(-0.136101 -0.0710988 0)
(-0.116343 -0.0871953 0)
(-0.0907332 -0.0936765 0)
(-0.0617532 -0.0879765 0)
(-0.0340315 -0.0697705 0)
(-0.0117638 -0.0425493 0)
(-0.00085379 -0.0122873 0)
(-0.00142249 0.022713 0)
(-0.0116467 0.0554552 0)
(-0.0285455 0.0768766 0)
(-0.0483896 0.0890833 0)
(-0.0698677 0.0938606 0)
(-0.0915002 0.0924551 0)
(-0.112438 0.0854886 0)
(-0.131804 0.0731445 0)
(-0.14877 0.0554426 0)
(-0.16239 0.0325375 0)
(-0.1716 0.00500585 0)
(-0.17521 -0.025895 0)
(-0.17197 -0.0579866 0)
(-0.160779 -0.0879989 0)
(-0.140982 -0.111569 0)
(-0.113152 -0.123675 0)
(-0.0794441 -0.119852 0)
(-0.0451997 -0.0981698 0)
(-0.0161767 -0.0619384 0)
(-0.00128338 -0.0189541 0)
(-0.00151535 0.028877 0)
(-0.0123583 0.0694996 0)
(-0.0302062 0.0955575 0)
(-0.0510557 0.110109 0)
(-0.0735274 0.115715 0)
(-0.0961447 0.114073 0)
(-0.118146 0.106044 0)
(-0.138782 0.0918548 0)
(-0.157363 0.0714561 0)
(-0.173058 0.0448505 0)
(-0.184858 0.012425 0)
(-0.191513 -0.0247429 0)
(-0.191528 -0.064545 0)
(-0.183286 -0.103505 0)
(-0.165314 -0.136494 0)
(-0.137127 -0.156884 0)
(-0.0999362 -0.15761 0)
(-0.0591732 -0.133886 0)
(-0.0221464 -0.0875416 0)
(-0.00194553 -0.0282075 0)
(-0.0015724 0.0353115 0)
(-0.0127574 0.084107 0)
(-0.0310508 0.114896 0)
(-0.0522296 0.131751 0)
(-0.0748521 0.138134 0)
(-0.0974879 0.136274 0)
(-0.119499 0.127337 0)
(-0.140324 0.111627 0)
(-0.159484 0.0890338 0)
(-0.176373 0.0593774 0)
(-0.190178 0.0227744 0)
(-0.199762 -0.0200361 0)
(-0.203578 -0.067276 0)
(-0.199649 -0.115629 0)
(-0.1857 -0.159595 0)
(-0.159896 -0.191139 0)
(-0.121783 -0.200111 0)
(-0.075762 -0.177324 0)
(-0.0300358 -0.120744 0)
(-0.00295689 -0.041003 0)
(-0.00162547 0.0419025 0)
(-0.0129477 0.0989251 0)
(-0.0311915 0.134321 0)
(-0.051945 0.153224 0)
(-0.0737008 0.160152 0)
(-0.0951355 0.157947 0)
(-0.115775 0.148169 0)
(-0.13531 0.131247 0)
(-0.153549 0.107046 0)
(-0.170212 0.075211 0)
(-0.184822 0.0355528 0)
(-0.196555 -0.0116442 0)
(-0.204067 -0.0651806 0)
(-0.205308 -0.12234 0)
(-0.197451 -0.177879 0)
(-0.177279 -0.223017 0)
(-0.142137 -0.244594 0)
(-0.0939004 -0.227641 0)
(-0.0400803 -0.162615 0)
(-0.00448045 -0.0585423 0)
(-0.00173714 0.0485538 0)
(-0.0131977 0.113581 0)
(-0.0310047 0.153174 0)
(-0.0505644 0.173567 0)
(-0.0703019 0.180557 0)
(-0.0891122 0.177682 0)
(-0.106743 0.166991 0)
(-0.12322 0.149094 0)
(-0.138695 0.123886 0)
(-0.153296 0.0908797 0)
(-0.166994 0.0495964 0)
(-0.179432 -0.000176745 0)
(-0.189727 -0.057985 0)
(-0.196115 -0.122114 0)
(-0.195693 -0.188316 0)
(-0.184204 -0.248178 0)
(-0.156758 -0.286474 0)
(-0.111273 -0.281998 0)
(-0.0521721 -0.213274 0)
(-0.00673421 -0.0822085 0)
(-0.00206223 0.0555967 0)
(-0.0140057 0.128159 0)
(-0.0311498 0.171096 0)
(-0.048764 0.191926 0)
(-0.0652207 0.198106 0)
(-0.0798375 0.193943 0)
(-0.0926689 0.182068 0)
(-0.10417 0.163305 0)
(-0.114885 0.137631 0)
(-0.12539 0.104477 0)
(-0.136141 0.0631339 0)
(-0.147341 0.0129321 0)
(-0.158747 -0.0464501 0)
(-0.169215 -0.114535 0)
(-0.17636 -0.188714 0)
(-0.17558 -0.262281 0)
(-0.160445 -0.31981 0)
(-0.124097 -0.335123 0)
(-0.0654685 -0.271082 0)
(-0.00997388 -0.113433 0)
(-0.00284405 0.063278 0)
(-0.0163076 0.142512 0)
(-0.0328232 0.187402 0)
(-0.0477446 0.207067 0)
(-0.0594539 0.2112 0)
(-0.0680981 0.204906 0)
(-0.0741638 0.191455 0)
(-0.0786732 0.171866 0)
(-0.082578 0.146215 0)
(-0.0869038 0.113891 0)
(-0.0925711 0.0740334 0)
(-0.100329 0.0256218 0)
(-0.110646 -0.0323234 0)
(-0.123207 -0.10054 0)
(-0.136704 -0.178382 0)
(-0.14705 -0.262038 0)
(-0.147689 -0.338317 0)
(-0.127198 -0.379425 0)
(-0.0778583 -0.331674 0)
(-0.0144104 -0.153183 0)
(-0.00462314 0.0738277 0)
(-0.0213336 0.158267 0)
(-0.0371649 0.202532 0)
(-0.0483334 0.218251 0)
(-0.053373 0.218389 0)
(-0.0539144 0.20874 0)
(-0.0510141 0.193149 0)
(-0.0464133 0.172699 0)
(-0.041457 0.147505 0)
(-0.0375818 0.11691 0)
(-0.036095 0.079956 0)
(-0.0382117 0.035412 0)
(-0.0450688 -0.0181405 0)
(-0.0572167 -0.0823811 0)
(-0.0747965 -0.158502 0)
(-0.0949951 -0.246192 0)
(-0.112989 -0.336846 0)
(-0.114142 -0.406101 0)
(-0.0852416 -0.387564 0)
(-0.0199955 -0.201508 0)
(-0.00823823 0.0873802 0)
(-0.0315967 0.174335 0)
(-0.0459593 0.214263 0)
(-0.0511135 0.222618 0)
(-0.046083 0.216698 0)
(-0.0352843 0.202661 0)
(-0.0204632 0.184646 0)
(-0.0042277 0.163562 0)
(0.0117785 0.139428 0)
(0.0258101 0.111516 0)
(0.0363075 0.0788121 0)
(0.0417295 0.0400185 0)
(0.0404113 -0.006459 0)
(0.0310586 -0.0627858 0)
(0.0120152 -0.13145 0)
(-0.0155934 -0.215351 0)
(-0.0504817 -0.311955 0)
(-0.077108 -0.40584 0)
(-0.080822 -0.427194 0)
(-0.025843 -0.255169 0)
(-0.0147949 0.114219 0)
(-0.046583 0.196081 0)
(-0.0547953 0.223592 0)
(-0.0483342 0.218186 0)
(-0.0275274 0.203034 0)
(-0.000940216 0.183455 0)
(0.0292012 0.16298 0)
(0.0595147 0.14185 0)
(0.088307 0.119698 0)
(0.113743 0.0956362 0)
(0.13422 0.0686036 0)
(0.148073 0.0373479 0)
(0.15334 0.000320612 0)
(0.14821 -0.0446481 0)
(0.129784 -0.100603 0)
(0.0974743 -0.172468 0)
(0.0479028 -0.263699 0)
(-0.00535131 -0.371909 0)
(-0.0530887 -0.437309 0)
(-0.0286864 -0.308634 0)
(-0.0256585 0.142262 0)
(-0.066251 0.2088 0)
(-0.0498376 0.215179 0)
(-0.0178562 0.193048 0)
(0.0293251 0.16905 0)
(0.0778111 0.145864 0)
(0.126409 0.125072 0)
(0.171854 0.105989 0)
(0.213121 0.0877073 0)
(0.248837 0.0692204 0)
(0.277775 0.0494932 0)
(0.298475 0.0274634 0)
(0.309036 0.00184563 0)
(0.307411 -0.0290683 0)
(0.290035 -0.0680572 0)
(0.254821 -0.120086 0)
(0.193992 -0.192482 0)
(0.116574 -0.295777 0)
(0.0166225 -0.39473 0)
(-0.017383 -0.338381 0)
(-0.0186451 0.215022 0)
(-0.0196495 0.215523 0)
(0.0563525 0.181122 0)
(0.12759 0.139368 0)
(0.203365 0.109236 0)
(0.270404 0.0870053 0)
(0.330972 0.0700001 0)
(0.383794 0.0564221 0)
(0.429288 0.0447679 0)
(0.467201 0.0340078 0)
(0.497102 0.023275 0)
(0.518133 0.0118395 0)
(0.528909 -0.00113387 0)
(0.527599 -0.0166175 0)
(0.510972 -0.0365904 0)
(0.476008 -0.0644424 0)
(0.412959 -0.108365 0)
(0.322793 -0.186623 0)
(0.172503 -0.296466 0)
(0.0428285 -0.334941 0)
(0.211447 0.129711 0)
(0.297638 0.101073 0)
(0.451569 0.0674626 0)
(0.54342 0.044186 0)
(0.617683 0.0288925 0)
(0.672978 0.0196537 0)
(0.716344 0.0136962 0)
(0.750521 0.00972153 0)
(0.777537 0.00682126 0)
(0.798401 0.00448681 0)
(0.813522 0.0023786 0)
(0.822801 0.00027319 0)
(0.825686 -0.00205123 0)
(0.821121 -0.004779 0)
(0.807183 -0.00845103 0)
(0.78086 -0.0136575 0)
(0.734102 -0.0229015 0)
(0.658497 -0.0407562 0)
(0.498104 -0.0744022 0)
(0.288337 -0.136244 0)
)
;

boundaryField
{
    movingWall
    {
        type            fixedValue;
        value           uniform (1 0 0);
    }
    fixedWalls
    {
        type            noSlip;
    }
    frontAndBack
    {
        type            empty;
    }
}


// ************************************************************************* //
