/*--------------------------------*- C++ -*----------------------------------*\
| =========                 |                                                 |
| \\      /  F ield         | OpenFOAM: The Open Source CFD Toolbox           |
|  \\    /   O peration     | Version:  4.1                                   |
|   \\  /    A nd           | Web:      www.OpenFOAM.org                      |
|    \\/     M anipulation  |                                                 |
\*---------------------------------------------------------------------------*/
FoamFile
{
    version     2.0;
    format      ascii;
    class       volVectorField;
    location    "0.063";
    object      U;
}
// * * * * * * * * * * * * * * * * * * * * * * * * * * * * * * * * * * * * * //

dimensions      [0 1 -1 0 0 0 0];

internalField   nonuniform List<vector> 
6400
(
(7.45608e-06 -7.42014e-06 0)
(2.80253e-05 -1.06657e-05 0)
(4.46452e-05 -7.15386e-06 0)
(5.15581e-05 1.70446e-06 0)
(4.48392e-05 1.40155e-05 0)
(2.21966e-05 2.83063e-05 0)
(-1.74833e-05 4.35074e-05 0)
(-7.44596e-05 5.88623e-05 0)
(-0.000148388 7.38412e-05 0)
(-0.000238504 8.80771e-05 0)
(-0.000343753 0.000101319 0)
(-0.000462888 0.0001134 0)
(-0.000594534 0.000124214 0)
(-0.00073724 0.000133697 0)
(-0.000889517 0.000141817 0)
(-0.00104986 0.000148569 0)
(-0.00121677 0.00015396 0)
(-0.00138877 0.000158014 0)
(-0.00156442 0.000160762 0)
(-0.0017423 0.000162243 0)
(-0.00192107 0.000162501 0)
(-0.00209941 0.000161584 0)
(-0.00227606 0.000159544 0)
(-0.00244984 0.000156431 0)
(-0.0026196 0.000152302 0)
(-0.00278426 0.000147212 0)
(-0.00294281 0.000141215 0)
(-0.00309428 0.000134369 0)
(-0.00323779 0.000126732 0)
(-0.00337249 0.000118359 0)
(-0.00349763 0.000109309 0)
(-0.00361249 9.96395e-05 0)
(-0.00371642 8.94088e-05 0)
(-0.00380886 7.86755e-05 0)
(-0.00388928 6.74987e-05 0)
(-0.00395723 5.59382e-05 0)
(-0.00401233 4.40545e-05 0)
(-0.00405426 3.19088e-05 0)
(-0.00408277 1.95633e-05 0)
(-0.00409767 7.081e-06 0)
(-0.00409884 -5.47376e-06 0)
(-0.00408626 -1.80357e-05 0)
(-0.00405994 -3.05385e-05 0)
(-0.00401998 -4.29144e-05 0)
(-0.00396657 -5.50949e-05 0)
(-0.00389995 -6.70102e-05 0)
(-0.00382044 -7.85897e-05 0)
(-0.00372846 -8.97619e-05 0)
(-0.00362448 -0.000100455 0)
(-0.00350907 -0.000110596 0)
(-0.00338286 -0.000120112 0)
(-0.00324658 -0.000128931 0)
(-0.00310103 -0.000136981 0)
(-0.00294707 -0.00014419 0)
(-0.00278566 -0.000150488 0)
(-0.00261784 -0.000155808 0)
(-0.00244469 -0.000160082 0)
(-0.00226741 -0.000163248 0)
(-0.00208721 -0.000165247 0)
(-0.00190541 -0.000166022 0)
(-0.00172337 -0.000165523 0)
(-0.0015425 -0.000163705 0)
(-0.00136426 -0.000160532 0)
(-0.00119015 -0.000155975 0)
(-0.00102169 -0.000150016 0)
(-0.000860409 -0.000142649 0)
(-0.000707863 -0.000133884 0)
(-0.000565571 -0.000123754 0)
(-0.000435019 -0.000112313 0)
(-0.000317624 -9.96525e-05 0)
(-0.000214697 -8.59083e-05 0)
(-0.000127393 -7.12762e-05 0)
(-5.66398e-05 -5.60354e-05 0)
(-3.04918e-06 -4.05791e-05 0)
(3.32149e-05 -2.54587e-05 0)
(5.26107e-05 -1.14443e-05 0)
(5.64585e-05 3.95789e-07 0)
(4.72438e-05 8.61511e-06 0)
(2.90332e-05 1.14007e-05 0)
(7.61913e-06 7.55422e-06 0)
(1.08311e-05 -2.79622e-05 0)
(4.16009e-05 -4.11147e-05 0)
(5.8814e-05 -2.34255e-05 0)
(4.91519e-05 1.53436e-05 0)
(3.29087e-06 6.7479e-05 0)
(-8.44197e-05 0.000127254 0)
(-0.000216905 0.000190509 0)
(-0.000395022 0.000254267 0)
(-0.000618101 0.00031642 0)
(-0.000884353 0.000375488 0)
(-0.00119119 0.000430451 0)
(-0.00153544 0.000480618 0)
(-0.00191356 0.000525544 0)
(-0.00232173 0.000564958 0)
(-0.002756 0.000598723 0)
(-0.00321232 0.000626795 0)
(-0.00368662 0.000649207 0)
(-0.00417487 0.000666043 0)
(-0.0046731 0.000677429 0)
(-0.00517742 0.000683519 0)
(-0.00568405 0.000684493 0)
(-0.00618935 0.000680547 0)
(-0.00668981 0.000671888 0)
(-0.00718206 0.000658736 0)
(-0.0076629 0.000641315 0)
(-0.00812928 0.000619854 0)
(-0.00857833 0.000594588 0)
(-0.00900734 0.000565753 0)
(-0.00941376 0.000533587 0)
(-0.00979525 0.00049833 0)
(-0.0101496 0.000460225 0)
(-0.0104748 0.000419514 0)
(-0.0107691 0.000376443 0)
(-0.0110307 0.000331259 0)
(-0.0112583 0.00028421 0)
(-0.0114506 0.000235549 0)
(-0.0116064 0.000185529 0)
(-0.0117248 0.000134411 0)
(-0.0118052 8.24545e-05 0)
(-0.0118471 2.99267e-05 0)
(-0.0118501 -2.29022e-05 0)
(-0.0118141 -7.57573e-05 0)
(-0.0117391 -0.000128359 0)
(-0.0116256 -0.000180423 0)
(-0.0114741 -0.000231661 0)
(-0.0112851 -0.00028178 0)
(-0.0110597 -0.000330484 0)
(-0.0107991 -0.000377471 0)
(-0.0105045 -0.000422441 0)
(-0.0101777 -0.00046509 0)
(-0.00982037 -0.000505112 0)
(-0.00943462 -0.000542204 0)
(-0.00902271 -0.000576065 0)
(-0.0085871 -0.000606397 0)
(-0.00813048 -0.000632909 0)
(-0.00765575 -0.000655315 0)
(-0.00716601 -0.000673342 0)
(-0.00666454 -0.000686726 0)
(-0.00615482 -0.000695221 0)
(-0.00564046 -0.000698599 0)
(-0.00512527 -0.00069665 0)
(-0.00461317 -0.000689195 0)
(-0.00410818 -0.000676082 0)
(-0.00361443 -0.000657198 0)
(-0.00313609 -0.000632472 0)
(-0.00267736 -0.00060189 0)
(-0.0022424 -0.000565503 0)
(-0.00183531 -0.000523445 0)
(-0.00146005 -0.000475959 0)
(-0.00112032 -0.000423426 0)
(-0.000819525 -0.000366407 0)
(-0.000560581 -0.000305711 0)
(-0.000345768 -0.000242472 0)
(-0.000176486 -0.000178273 0)
(-5.29622e-05 -0.000115308 0)
(2.61454e-05 -5.66036e-05 0)
(6.42564e-05 -6.31398e-06 0)
(6.74761e-05 2.99397e-05 0)
(4.54638e-05 4.47269e-05 0)
(1.16561e-05 2.89003e-05 0)
(7.52065e-06 -4.47544e-05 0)
(2.47008e-05 -5.83857e-05 0)
(1.60943e-05 -1.43226e-05 0)
(-3.54721e-05 6.89791e-05 0)
(-0.000142464 0.000177368 0)
(-0.000312673 0.000300254 0)
(-0.000550291 0.000429814 0)
(-0.000856667 0.000560331 0)
(-0.00123097 0.000687667 0)
(-0.00167071 0.000808858 0)
(-0.00217218 0.000921812 0)
(-0.00273075 0.00102508 0)
(-0.00334117 0.0011177 0)
(-0.00399771 0.00119907 0)
(-0.00469438 0.00126884 0)
(-0.00542501 0.00132689 0)
(-0.00618336 0.00137323 0)
(-0.0069632 0.00140801 0)
(-0.00775836 0.00143145 0)
(-0.00856278 0.00144385 0)
(-0.00937055 0.00144557 0)
(-0.0101759 0.00143698 0)
(-0.0109734 0.00141852 0)
(-0.0117577 0.00139062 0)
(-0.0125237 0.00135374 0)
(-0.0132666 0.00130837 0)
(-0.0139819 0.00125498 0)
(-0.0146651 0.00119407 0)
(-0.0153124 0.00112614 0)
(-0.0159199 0.00105168 0)
(-0.0164841 0.000971219 0)
(-0.0170019 0.000885256 0)
(-0.0174704 0.000794311 0)
(-0.0178869 0.000698907 0)
(-0.0182491 0.00059957 0)
(-0.0185549 0.000496834 0)
(-0.0188027 0.000391238 0)
(-0.0189909 0.00028333 0)
(-0.0191186 0.000173664 0)
(-0.0191848 6.28028e-05 0)
(-0.0191892 -4.86805e-05 0)
(-0.0191314 -0.000160205 0)
(-0.0190117 -0.000271179 0)
(-0.0188306 -0.000381002 0)
(-0.0185888 -0.000489067 0)
(-0.0182876 -0.000594755 0)
(-0.0179285 -0.000697442 0)
(-0.0175133 -0.000796497 0)
(-0.0170442 -0.000891285 0)
(-0.0165238 -0.000981169 0)
(-0.015955 -0.00106551 0)
(-0.015341 -0.00114368 0)
(-0.0146854 -0.00121504 0)
(-0.0139921 -0.00127897 0)
(-0.0132655 -0.00133487 0)
(-0.01251 -0.00138214 0)
(-0.0117307 -0.00142023 0)
(-0.0109326 -0.00144859 0)
(-0.0101212 -0.00146671 0)
(-0.00930228 -0.00147413 0)
(-0.00848173 -0.00147043 0)
(-0.00766569 -0.00145526 0)
(-0.00686045 -0.00142831 0)
(-0.00607241 -0.00138937 0)
(-0.00530803 -0.00133834 0)
(-0.00457379 -0.00127521 0)
(-0.00387608 -0.00120013 0)
(-0.00322114 -0.00111341 0)
(-0.00261495 -0.0010156 0)
(-0.0020631 -0.000907532 0)
(-0.0015706 -0.000790398 0)
(-0.00114173 -0.00066588 0)
(-0.000779755 -0.000536292 0)
(-0.0004866 -0.000404802 0)
(-0.000262464 -0.000275709 0)
(-0.000105314 -0.000154827 0)
(-1.02639e-05 -4.99711e-05 0)
(3.11186e-05 2.84462e-05 0)
(3.17871e-05 6.6721e-05 0)
(9.1581e-06 4.72793e-05 0)
(-1.06605e-06 -5.21721e-05 0)
(-1.29895e-05 -4.94329e-05 0)
(-6.5331e-05 3.69765e-05 0)
(-0.000176818 0.000180908 0)
(-0.00036134 0.000362069 0)
(-0.000627685 0.000564977 0)
(-0.000980623 0.000777947 0)
(-0.00142166 0.000992248 0)
(-0.00194973 0.00120142 0)
(-0.00256175 0.00140073 0)
(-0.00325309 0.00158677 0)
(-0.00401795 0.00175711 0)
(-0.00484968 0.00191009 0)
(-0.005741 0.00204464 0)
(-0.00668423 0.00216012 0)
(-0.00767139 0.00225623 0)
(-0.0086944 0.00233294 0)
(-0.00974515 0.00239041 0)
(-0.0108155 0.00242897 0)
(-0.0118976 0.00244908 0)
(-0.0129837 0.00245128 0)
(-0.014066 0.00243619 0)
(-0.0151374 0.00240448 0)
(-0.0161908 0.00235689 0)
(-0.0172194 0.00229416 0)
(-0.0182168 0.00221709 0)
(-0.0191769 0.00212647 0)
(-0.020094 0.00202314 0)
(-0.0209626 0.00190793 0)
(-0.0217778 0.00178168 0)
(-0.0225349 0.00164525 0)
(-0.0232296 0.00149951 0)
(-0.023858 0.00134534 0)
(-0.0244166 0.00118361 0)
(-0.0249023 0.00101523 0)
(-0.0253123 0.000841103 0)
(-0.0256443 0.00066214 0)
(-0.0258965 0.000479272 0)
(-0.0260674 0.000293444 0)
(-0.0261558 0.000105611 0)
(-0.0261611 -8.32546e-05 0)
(-0.0260832 -0.000272165 0)
(-0.0259221 -0.000460119 0)
(-0.0256787 -0.000646099 0)
(-0.0253541 -0.000829074 0)
(-0.0249497 -0.001008 0)
(-0.0244677 -0.00118182 0)
(-0.0239105 -0.00134948 0)
(-0.0232811 -0.00150989 0)
(-0.0225829 -0.00166199 0)
(-0.0218198 -0.00180471 0)
(-0.0209962 -0.00193698 0)
(-0.0201169 -0.00205774 0)
(-0.019187 -0.00216597 0)
(-0.0182124 -0.00226065 0)
(-0.017199 -0.00234079 0)
(-0.0161534 -0.00240546 0)
(-0.0150825 -0.00245377 0)
(-0.0139935 -0.00248489 0)
(-0.012894 -0.00249806 0)
(-0.0117917 -0.00249261 0)
(-0.0106949 -0.00246796 0)
(-0.00961168 -0.00242367 0)
(-0.0085505 -0.00235943 0)
(-0.0075198 -0.00227508 0)
(-0.006528 -0.00217068 0)
(-0.0055834 -0.00204655 0)
(-0.00469403 -0.00190328 0)
(-0.00386756 -0.00174183 0)
(-0.00311113 -0.00156365 0)
(-0.00243109 -0.00137077 0)
(-0.0018328 -0.00116597 0)
(-0.00132036 -0.00095303 0)
(-0.000896153 -0.00073699 0)
(-0.000560488 -0.000524569 0)
(-0.000311019 -0.000324654 0)
(-0.000142125 -0.000148934 0)
(-4.42192e-05 -1.26731e-05 0)
(-2.76568e-06 6.43817e-05 0)
(1.36831e-06 5.709e-05 0)
(-1.31023e-05 -4.63679e-05 0)
(-6.40551e-05 -5.02771e-06 0)
(-0.000171984 0.000142906 0)
(-0.000355819 0.000365078 0)
(-0.000629662 0.000635822 0)
(-0.00100236 0.000935115 0)
(-0.00147859 0.00124751 0)
(-0.00205962 0.00156122 0)
(-0.00274393 0.00186733 0)
(-0.00352779 0.00215918 0)
(-0.00440573 0.00243184 0)
(-0.00537092 0.00268177 0)
(-0.00641552 0.00290646 0)
(-0.00753092 0.00310424 0)
(-0.00870798 0.00327407 0)
(-0.00993722 0.00341541 0)
(-0.011209 0.00352812 0)
(-0.0125135 0.00361236 0)
(-0.013841 0.00366856 0)
(-0.0151819 0.00369731 0)
(-0.0165267 0.00369937 0)
(-0.0178663 0.00367562 0)
(-0.0191918 0.00362703 0)
(-0.0204945 0.00355465 0)
(-0.0217662 0.00345958 0)
(-0.022999 0.00334298 0)
(-0.0241856 0.00320605 0)
(-0.0253187 0.00305 0)
(-0.0263918 0.00287607 0)
(-0.0273987 0.00268555 0)
(-0.0283338 0.00247971 0)
(-0.0291916 0.00225985 0)
(-0.0299675 0.00202729 0)
(-0.0306571 0.00178337 0)
(-0.0312565 0.00152943 0)
(-0.0317625 0.00126684 0)
(-0.0321722 0.000996988 0)
(-0.0324832 0.000721273 0)
(-0.0326937 0.000441122 0)
(-0.0328024 0.000157978 0)
(-0.0328086 -0.000126691 0)
(-0.0327119 -0.000411396 0)
(-0.0325127 -0.000694627 0)
(-0.0322118 -0.000974851 0)
(-0.0318107 -0.00125052 0)
(-0.0313111 -0.00152005 0)
(-0.0307158 -0.00178187 0)
(-0.0300277 -0.00203438 0)
(-0.0292506 -0.00227598 0)
(-0.0283885 -0.00250505 0)
(-0.0274464 -0.00271999 0)
(-0.0264295 -0.00291923 0)
(-0.0253437 -0.00310117 0)
(-0.0241956 -0.00326429 0)
(-0.0229919 -0.00340709 0)
(-0.0217403 -0.00352811 0)
(-0.0204486 -0.00362596 0)
(-0.0191252 -0.00369935 0)
(-0.017779 -0.00374706 0)
(-0.0164192 -0.00376799 0)
(-0.0150552 -0.00376117 0)
(-0.0136969 -0.00372581 0)
(-0.0123543 -0.00366128 0)
(-0.0110374 -0.00356718 0)
(-0.00975647 -0.00344336 0)
(-0.00852161 -0.00328997 0)
(-0.00734273 -0.00310755 0)
(-0.00622944 -0.00289708 0)
(-0.00519084 -0.00266006 0)
(-0.00423537 -0.00239868 0)
(-0.00337055 -0.00211598 0)
(-0.00260273 -0.00181603 0)
(-0.00193676 -0.00150426 0)
(-0.00137559 -0.00118777 0)
(-0.000919876 -0.000875857 0)
(-0.000567389 -0.000580536 0)
(-0.000312453 -0.000317301 0)
(-0.000145276 -0.000105958 0)
(-5.09406e-05 2.83983e-05 0)
(-9.9356e-06 5.44404e-05 0)
(-2.72172e-05 -2.50201e-05 0)
(-0.000123202 8.06806e-05 0)
(-0.000294193 0.000311704 0)
(-0.00055857 0.000631 0)
(-0.000929837 0.00100847 0)
(-0.00141617 0.00142013 0)
(-0.00202161 0.00184705 0)
(-0.00274677 0.00227452 0)
(-0.00358941 0.00269119 0)
(-0.00454502 0.00308839 0)
(-0.00560727 0.00345962 0)
(-0.00676834 0.00380009 0)
(-0.00801931 0.00410635 0)
(-0.00935038 0.00437603 0)
(-0.0107512 0.00460762 0)
(-0.0122108 0.00480026 0)
(-0.0137183 0.00495366 0)
(-0.0152624 0.00506795 0)
(-0.016832 0.00514362 0)
(-0.0184159 0.0051814 0)
(-0.0200033 0.00518229 0)
(-0.0215836 0.00514743 0)
(-0.0231463 0.00507812 0)
(-0.0246815 0.00497578 0)
(-0.0261797 0.0048419 0)
(-0.0276317 0.00467806 0)
(-0.0290287 0.0044859 0)
(-0.0303625 0.0042671 0)
(-0.0316255 0.00402338 0)
(-0.0328103 0.0037565 0)
(-0.0339104 0.00346824 0)
(-0.0349195 0.00316042 0)
(-0.035832 0.00283488 0)
(-0.036643 0.00249348 0)
(-0.0373478 0.0021381 0)
(-0.0379426 0.00177065 0)
(-0.0384241 0.00139308 0)
(-0.0387895 0.00100735 0)
(-0.0390368 0.000615448 0)
(-0.0391643 0.000219399 0)
(-0.0391712 -0.000178745 0)
(-0.0390572 -0.000576901 0)
(-0.0388227 -0.000972957 0)
(-0.0384687 -0.00136478 0)
(-0.0379967 -0.00175019 0)
(-0.0374092 -0.002127 0)
(-0.036709 -0.00249302 0)
(-0.0358997 -0.002846 0)
(-0.0349858 -0.00318373 0)
(-0.033972 -0.00350397 0)
(-0.0328639 -0.00380451 0)
(-0.0316679 -0.00408313 0)
(-0.0303907 -0.00433766 0)
(-0.02904 -0.00456599 0)
(-0.0276237 -0.00476605 0)
(-0.0261506 -0.00493583 0)
(-0.0246299 -0.00507346 0)
(-0.0230714 -0.00517714 0)
(-0.0214852 -0.00524523 0)
(-0.0198821 -0.00527626 0)
(-0.018273 -0.00526894 0)
(-0.0166693 -0.0052222 0)
(-0.0150824 -0.00513526 0)
(-0.0135241 -0.00500763 0)
(-0.012006 -0.00483918 0)
(-0.0105397 -0.00463023 0)
(-0.00913648 -0.00438159 0)
(-0.00780741 -0.00409468 0)
(-0.00656284 -0.00377166 0)
(-0.00541239 -0.0034156 0)
(-0.00436465 -0.00303062 0)
(-0.00342691 -0.00262224 0)
(-0.00260484 -0.00219763 0)
(-0.00190212 -0.00176605 0)
(-0.00131999 -0.00133934 0)
(-0.00085679 -0.000932583 0)
(-0.000507362 -0.000564802 0)
(-0.000262419 -0.000259828 0)
(-0.000107475 -4.72225e-05 0)
(-2.33902e-05 3.69389e-05 0)
(-4.24619e-05 1.31461e-05 0)
(-0.000186777 0.000211171 0)
(-0.000425185 0.000548556 0)
(-0.00077515 0.000984903 0)
(-0.00124907 0.00148664 0)
(-0.00185394 0.00202645 0)
(-0.0025927 0.00258236 0)
(-0.00346494 0.00313696 0)
(-0.00446746 0.00367657 0)
(-0.00559482 0.00419059 0)
(-0.00683969 0.0046709 0)
(-0.00819328 0.00511144 0)
(-0.00964561 0.00550775 0)
(-0.0111858 0.0058567 0)
(-0.0128023 0.00615624 0)
(-0.014483 0.00640516 0)
(-0.0162158 0.00660298 0)
(-0.017988 0.00674976 0)
(-0.0197873 0.00684603 0)
(-0.0216012 0.00689268 0)
(-0.0234176 0.00689092 0)
(-0.0252245 0.0068422 0)
(-0.0270103 0.00674816 0)
(-0.0287639 0.00661061 0)
(-0.0304744 0.00643148 0)
(-0.0321316 0.00621282 0)
(-0.0337255 0.00595676 0)
(-0.035247 0.00566549 0)
(-0.0366873 0.00534129 0)
(-0.0380382 0.00498645 0)
(-0.0392922 0.00460333 0)
(-0.0404424 0.00419433 0)
(-0.0414823 0.00376187 0)
(-0.0424062 0.00330843 0)
(-0.0432092 0.00283649 0)
(-0.0438868 0.00234859 0)
(-0.0444352 0.00184731 0)
(-0.0448513 0.00133525 0)
(-0.0451328 0.00081505 0)
(-0.0452779 0.000289394 0)
(-0.0452857 -0.000238996 0)
(-0.0451557 -0.000767361 0)
(-0.0448884 -0.0012929 0)
(-0.0444851 -0.00181279 0)
(-0.0439474 -0.00232415 0)
(-0.0432781 -0.00282409 0)
(-0.0424805 -0.0033097 0)
(-0.0415586 -0.00377804 0)
(-0.0405174 -0.00422617 0)
(-0.0393623 -0.00465115 0)
(-0.0380998 -0.00505005 0)
(-0.0367368 -0.00541999 0)
(-0.0352811 -0.00575811 0)
(-0.0337412 -0.00606164 0)
(-0.0321262 -0.00632786 0)
(-0.0304459 -0.00655418 0)
(-0.0287107 -0.00673814 0)
(-0.0269315 -0.00687743 0)
(-0.0251198 -0.00696993 0)
(-0.0232875 -0.00701374 0)
(-0.0214471 -0.00700724 0)
(-0.0196111 -0.00694909 0)
(-0.0177924 -0.00683832 0)
(-0.0160041 -0.00667438 0)
(-0.0142592 -0.00645718 0)
(-0.0125705 -0.00618723 0)
(-0.0109508 -0.00586567 0)
(-0.0094122 -0.00549445 0)
(-0.00796631 -0.00507644 0)
(-0.00662384 -0.00461563 0)
(-0.00539443 -0.00411736 0)
(-0.00428636 -0.00358862 0)
(-0.0033062 -0.00303836 0)
(-0.00245853 -0.00247797 0)
(-0.00174549 -0.00192179 0)
(-0.00116634 -0.0013877 0)
(-0.000716871 -0.000897911 0)
(-0.000388841 -0.000479674 0)
(-0.000168694 -0.000166114 0)
(-3.80402e-05 3.24056e-06 0)
(-5.82073e-05 6.86942e-05 0)
(-0.000252333 0.000388234 0)
(-0.00056034 0.000856389 0)
(-0.000998649 0.00143052 0)
(-0.00157827 0.00207446 0)
(-0.00230467 0.00275819 0)
(-0.00317937 0.00345716 0)
(-0.00420062 0.00415157 0)
(-0.00536403 0.0048256 0)
(-0.00666302 0.00546681 0)
(-0.0080892 0.00606556 0)
(-0.00963271 0.00661447 0)
(-0.0112825 0.0071081 0)
(-0.0130267 0.00754252 0)
(-0.0148525 0.00791512 0)
(-0.0167469 0.00822431 0)
(-0.0186965 0.00846936 0)
(-0.0206875 0.00865027 0)
(-0.0227064 0.00876761 0)
(-0.0247396 0.00882241 0)
(-0.0267737 0.0088161 0)
(-0.0287958 0.00875045 0)
(-0.030793 0.00862746 0)
(-0.032753 0.00844937 0)
(-0.034664 0.00821859 0)
(-0.0365146 0.00793765 0)
(-0.038294 0.00760924 0)
(-0.039992 0.00723613 0)
(-0.041599 0.00682115 0)
(-0.0431059 0.00636724 0)
(-0.0445044 0.00587737 0)
(-0.0457869 0.00535459 0)
(-0.0469462 0.00480197 0)
(-0.0479762 0.00422266 0)
(-0.0488712 0.00361983 0)
(-0.0496264 0.00299672 0)
(-0.0502376 0.00235659 0)
(-0.0507013 0.00170277 0)
(-0.051015 0.00103863 0)
(-0.0511768 0.000367582 0)
(-0.0511855 -0.000306907 0)
(-0.0510408 -0.000981321 0)
(-0.0507432 -0.0016521 0)
(-0.0502939 -0.00231564 0)
(-0.049695 -0.00296829 0)
(-0.0489495 -0.00360637 0)
(-0.0480609 -0.00422619 0)
(-0.0470338 -0.00482401 0)
(-0.0458736 -0.00539611 0)
(-0.0445864 -0.00593877 0)
(-0.0431791 -0.00644828 0)
(-0.0416596 -0.00692099 0)
(-0.0400364 -0.0073533 0)
(-0.0383188 -0.0077417 0)
(-0.0365169 -0.0080828 0)
(-0.0346413 -0.00837333 0)
(-0.0327036 -0.0086102 0)
(-0.0307158 -0.00879053 0)
(-0.0286905 -0.0089117 0)
(-0.0266408 -0.00897134 0)
(-0.0245801 -0.00896747 0)
(-0.0225225 -0.00889847 0)
(-0.020482 -0.00876318 0)
(-0.0184729 -0.00856099 0)
(-0.0165093 -0.00829187 0)
(-0.0146055 -0.00795654 0)
(-0.0127752 -0.00755651 0)
(-0.0110319 -0.00709429 0)
(-0.00938813 -0.00657349 0)
(-0.00785581 -0.00599911 0)
(-0.00644561 -0.0053777 0)
(-0.00516685 -0.00471772 0)
(-0.00402718 -0.0040299 0)
(-0.00303224 -0.00332766 0)
(-0.0021853 -0.00262765 0)
(-0.00148685 -0.00195032 0)
(-0.000933999 -0.00132062 0)
(-0.000519866 -0.000768633 0)
(-0.000232117 -0.000330218 0)
(-5.32462e-05 -4.72804e-05 0)
(-7.40499e-05 0.000141728 0)
(-0.000318288 0.000612516 0)
(-0.000696605 0.00123654 0)
(-0.0012244 0.00196978 0)
(-0.00191117 0.00277422 0)
(-0.00276067 0.00361773 0)
(-0.00377273 0.00447364 0)
(-0.00494405 0.00532009 0)
(-0.00626883 0.00613938 0)
(-0.0077392 0.00691738 0)
(-0.00934557 0.00764299 0)
(-0.011077 0.00830763 0)
(-0.0129212 0.00890485 0)
(-0.0148653 0.00942997 0)
(-0.0168956 0.00987979 0)
(-0.0189978 0.0102523 0)
(-0.0211574 0.0105466 0)
(-0.0233597 0.0107626 0)
(-0.0255901 0.0109009 0)
(-0.0278338 0.0109626 0)
(-0.0300766 0.0109494 0)
(-0.0323043 0.0108634 0)
(-0.034503 0.0107071 0)
(-0.0366596 0.010483 0)
(-0.0387612 0.0101942 0)
(-0.0407955 0.00984365 0)
(-0.0427507 0.00943465 0)
(-0.0446159 0.00897057 0)
(-0.0463806 0.00845492 0)
(-0.048035 0.00789126 0)
(-0.04957 0.00728328 0)
(-0.0509775 0.00663469 0)
(-0.0522496 0.00594932 0)
(-0.0533797 0.00523102 0)
(-0.0543616 0.00448372 0)
(-0.05519 0.0037114 0)
(-0.0558605 0.00291811 0)
(-0.0563694 0.00210794 0)
(-0.0567137 0.00128507 0)
(-0.0568914 0.000453711 0)
(-0.0569013 -0.000381859 0)
(-0.0567431 -0.0012173 0)
(-0.0564173 -0.00204821 0)
(-0.0559252 -0.00287015 0)
(-0.0552691 -0.00367862 0)
(-0.0544521 -0.00446909 0)
(-0.0534782 -0.00523699 0)
(-0.0523524 -0.00597774 0)
(-0.0510803 -0.00668676 0)
(-0.0496688 -0.00735947 0)
(-0.0481252 -0.00799132 0)
(-0.0464581 -0.00857783 0)
(-0.0446767 -0.0091146 0)
(-0.042791 -0.00959732 0)
(-0.040812 -0.0100218 0)
(-0.0387512 -0.0103842 0)
(-0.0366211 -0.0106806 0)
(-0.0344347 -0.0109076 0)
(-0.0322055 -0.0110619 0)
(-0.0299477 -0.0111408 0)
(-0.027676 -0.0111419 0)
(-0.0254053 -0.0110631 0)
(-0.0231508 -0.0109033 0)
(-0.020928 -0.0106617 0)
(-0.0187523 -0.0103384 0)
(-0.0166387 -0.00993418 0)
(-0.0146024 -0.0094511 0)
(-0.0126579 -0.00889218 0)
(-0.0108188 -0.00826182 0)
(-0.00909814 -0.00756599 0)
(-0.00750776 -0.00681246 0)
(-0.0060581 -0.00601114 0)
(-0.00475798 -0.00517444 0)
(-0.00361429 -0.0043177 0)
(-0.00263165 -0.00345966 0)
(-0.001812 -0.00262304 0)
(-0.00115402 -0.00183512 0)
(-0.00065239 -0.00112824 0)
(-0.000296131 -0.000540318 0)
(-6.8596e-05 -0.000114782 0)
(-8.97428e-05 0.000232069 0)
(-0.000383663 0.000883918 0)
(-0.000832046 0.00168924 0)
(-0.00144938 0.00260332 0)
(-0.00224363 0.00358685 0)
(-0.00321673 0.00460616 0)
(-0.00436666 0.00563286 0)
(-0.00568842 0.00664336 0)
(-0.00717463 0.00761833 0)
(-0.00881597 0.00854216 0)
(-0.0106016 0.00940241 0)
(-0.0125192 0.0101894 0)
(-0.0145555 0.0108957 0)
(-0.0166965 0.0115159 0)
(-0.0189272 0.0120464 0)
(-0.0212326 0.0124846 0)
(-0.0235969 0.0128295 0)
(-0.0260046 0.0130808 0)
(-0.0284399 0.0132393 0)
(-0.0308872 0.0133062 0)
(-0.0333312 0.0132834 0)
(-0.0357567 0.0131735 0)
(-0.0381491 0.0129792 0)
(-0.0404941 0.0127037 0)
(-0.0427781 0.0123504 0)
(-0.0449879 0.0119229 0)
(-0.047111 0.0114252 0)
(-0.0491356 0.0108613 0)
(-0.0510505 0.0102354 0)
(-0.0528452 0.00955176 0)
(-0.0545102 0.00881474 0)
(-0.0560364 0.00802888 0)
(-0.0574158 0.00719872 0)
(-0.058641 0.00632894 0)
(-0.0597055 0.00542425 0)
(-0.0606037 0.00448945 0)
(-0.0613307 0.00352942 0)
(-0.0618825 0.00254909 0)
(-0.0622562 0.00155348 0)
(-0.0624495 0.000547673 0)
(-0.0624611 -0.000463168 0)
(-0.0622906 -0.00147382 0)
(-0.0619385 -0.00247899 0)
(-0.0614064 -0.00347333 0)
(-0.0606966 -0.00445142 0)
(-0.0598124 -0.00540783 0)
(-0.0587581 -0.00633705 0)
(-0.0575391 -0.00723358 0)
(-0.0561614 -0.00809192 0)
(-0.0546321 -0.00890657 0)
(-0.0529594 -0.00967209 0)
(-0.0511522 -0.0103831 0)
(-0.0492204 -0.0110343 0)
(-0.0471748 -0.0116206 0)
(-0.0450269 -0.012137 0)
(-0.0427892 -0.0125788 0)
(-0.040475 -0.0129414 0)
(-0.038098 -0.0132208 0)
(-0.0356729 -0.0134131 0)
(-0.0332147 -0.013515 0)
(-0.0307391 -0.0135237 0)
(-0.028262 -0.013437 0)
(-0.0257998 -0.0132532 0)
(-0.0233689 -0.0129717 0)
(-0.0209857 -0.0125925 0)
(-0.0186665 -0.0121168 0)
(-0.0164276 -0.0115469 0)
(-0.0142843 -0.0108864 0)
(-0.0122517 -0.0101405 0)
(-0.0103438 -0.00931607 0)
(-0.00857371 -0.00842209 0)
(-0.00695301 -0.00746985 0)
(-0.00549188 -0.00647332 0)
(-0.00419861 -0.0054496 0)
(-0.00307934 -0.00441932 0)
(-0.00213763 -0.00340716 0)
(-0.00137388 -0.00244232 0)
(-0.000784454 -0.00155896 0)
(-0.000359737 -0.000796447 0)
(-8.38366e-05 -0.000199131 0)
(-0.000105147 0.00033938 0)
(-0.000447901 0.00120188 0)
(-0.000965525 0.00221405 0)
(-0.00167175 0.00333092 0)
(-0.00257306 0.00451241 0)
(-0.00366952 0.0057237 0)
(-0.0049572 0.00693506 0)
(-0.00642926 0.00812153 0)
(-0.00807662 0.00926239 0)
(-0.00988841 0.0103407 0)
(-0.0118523 0.0113429 0)
(-0.0139548 0.0122583 0)
(-0.0161813 0.0130786 0)
(-0.0185167 0.0137978 0)
(-0.020945 0.0144116 0)
(-0.0234499 0.0149172 0)
(-0.0260148 0.0153134 0)
(-0.0286232 0.0155999 0)
(-0.0312583 0.0157773 0)
(-0.0339035 0.0158473 0)
(-0.0365427 0.015812 0)
(-0.0391598 0.0156742 0)
(-0.0417393 0.0154371 0)
(-0.0442662 0.0151045 0)
(-0.0467259 0.0146802 0)
(-0.0491046 0.0141687 0)
(-0.051389 0.0135743 0)
(-0.0535665 0.012902 0)
(-0.0556255 0.0121565 0)
(-0.0575547 0.0113429 0)
(-0.059344 0.0104663 0)
(-0.060984 0.00953214 0)
(-0.062466 0.00854571 0)
(-0.0637822 0.0075125 0)
(-0.0649259 0.00643811 0)
(-0.0658908 0.00532818 0)
(-0.0666721 0.00418848 0)
(-0.0672654 0.00302484 0)
(-0.0676676 0.00184318 0)
(-0.0678762 0.000649507 0)
(-0.0678898 -0.000550097 0)
(-0.0677082 -0.00174946 0)
(-0.0673318 -0.00294234 0)
(-0.0667621 -0.00412241 0)
(-0.0660017 -0.00528331 0)
(-0.0650541 -0.0064186 0)
(-0.0639238 -0.00752181 0)
(-0.0626164 -0.00858647 0)
(-0.0611383 -0.00960607 0)
(-0.0594971 -0.0105742 0)
(-0.0577013 -0.0114843 0)
(-0.0557604 -0.0123303 0)
(-0.0536848 -0.0131057 0)
(-0.051486 -0.0138047 0)
(-0.0491761 -0.0144214 0)
(-0.0467683 -0.0149502 0)
(-0.0442766 -0.015386 0)
(-0.0417157 -0.0157237 0)
(-0.039101 -0.015959 0)
(-0.0364484 -0.0160881 0)
(-0.0337745 -0.0161076 0)
(-0.0310963 -0.016015 0)
(-0.028431 -0.0158085 0)
(-0.0257961 -0.0154872 0)
(-0.023209 -0.0150512 0)
(-0.0206873 -0.014502 0)
(-0.018248 -0.0138421 0)
(-0.0159078 -0.0130757 0)
(-0.0136829 -0.0122088 0)
(-0.0115885 -0.0112492 0)
(-0.00963883 -0.0102068 0)
(-0.00784702 -0.00909439 0)
(-0.00622458 -0.00792727 0)
(-0.00478135 -0.00672413 0)
(-0.00352511 -0.00550728 0)
(-0.00246118 -0.00430306 0)
(-0.00159175 -0.0031423 0)
(-0.000914914 -0.00206054 0)
(-0.00042237 -0.00109817 0)
(-9.8826e-05 -0.000300035 0)
(-0.000120194 0.000463242 0)
(-0.000510727 0.00156559 0)
(-0.00109646 0.00281008 0)
(-0.00189051 0.00415182 0)
(-0.00289799 0.00555031 0)
(-0.00411712 0.00696993 0)
(-0.005542 0.00837997 0)
(-0.00716388 0.00975433 0)
(-0.0089719 0.0110712 0)
(-0.0109535 0.0123125 0)
(-0.0130949 0.0134637 0)
(-0.0153812 0.0145132 0)
(-0.0177965 0.015452 0)
(-0.0203244 0.0162734 0)
(-0.0229478 0.0169728 0)
(-0.0256496 0.0175472 0)
(-0.0284119 0.0179949 0)
(-0.0312173 0.0183158 0)
(-0.0340481 0.0185107 0)
(-0.036887 0.0185812 0)
(-0.0397166 0.01853 0)
(-0.0425204 0.0183601 0)
(-0.0452818 0.0180752 0)
(-0.0479852 0.0176797 0)
(-0.0506152 0.0171781 0)
(-0.0531573 0.0165752 0)
(-0.0555976 0.0158764 0)
(-0.0579229 0.0150871 0)
(-0.0601208 0.0142129 0)
(-0.0621797 0.0132597 0)
(-0.0640889 0.0122334 0)
(-0.0658385 0.0111403 0)
(-0.0674193 0.00998651 0)
(-0.0688233 0.00877843 0)
(-0.0700432 0.00752254 0)
(-0.0710727 0.0062254 0)
(-0.0719065 0.00489369 0)
(-0.0725401 0.00353419 0)
(-0.0729701 0.00215376 0)
(-0.073194 0.000759394 0)
(-0.0732104 -0.000641857 0)
(-0.0730187 -0.00204283 0)
(-0.0726197 -0.00343627 0)
(-0.0720148 -0.00481486 0)
(-0.0712066 -0.0061712 0)
(-0.0701989 -0.00749783 0)
(-0.0689964 -0.00878725 0)
(-0.0676048 -0.0100319 0)
(-0.0660309 -0.0112244 0)
(-0.0642827 -0.0123571 0)
(-0.062369 -0.0134226 0)
(-0.0602997 -0.0144137 0)
(-0.0580859 -0.0153231 0)
(-0.0557394 -0.0161439 0)
(-0.0532731 -0.0168693 0)
(-0.0507008 -0.0174929 0)
(-0.0480371 -0.0180087 0)
(-0.0452975 -0.0184109 0)
(-0.0424981 -0.0186947 0)
(-0.0396558 -0.0188554 0)
(-0.036788 -0.0188893 0)
(-0.0339125 -0.0187934 0)
(-0.0310476 -0.0185657 0)
(-0.0282117 -0.0182052 0)
(-0.0254234 -0.0177121 0)
(-0.022701 -0.0170877 0)
(-0.0200629 -0.0163353 0)
(-0.0175269 -0.0154593 0)
(-0.0151103 -0.0144664 0)
(-0.0128296 -0.0133652 0)
(-0.0107006 -0.0121669 0)
(-0.00873757 -0.0108851 0)
(-0.00695368 -0.00953666 0)
(-0.00536037 -0.00814158 0)
(-0.00396719 -0.00672363 0)
(-0.00278128 -0.0053106 0)
(-0.00180669 -0.00393463 0)
(-0.00104321 -0.00263233 0)
(-0.000483765 -0.00144482 0)
(-0.000113498 -0.000417118 0)
(-0.000134866 0.000603218 0)
(-0.000572065 0.00197413 0)
(-0.00122464 0.00347625 0)
(-0.00210527 0.00506498 0)
(-0.0032178 0.00669964 0)
(-0.00455863 0.00834412 0)
(-0.00611991 0.00996697 0)
(-0.00789094 0.0115412 0)
(-0.009859 0.0130442 0)
(-0.0120098 0.0144569 0)
(-0.014328 0.0157639 0)
(-0.0167971 0.016953 0)
(-0.0194001 0.0180144 0)
(-0.0221191 0.0189411 0)
(-0.0249361 0.019728 0)
(-0.0278325 0.0203719 0)
(-0.0307899 0.0208711 0)
(-0.0337896 0.0212254 0)
(-0.036813 0.0214357 0)
(-0.039842 0.021504 0)
(-0.0428584 0.0214332 0)
(-0.0458449 0.0212268 0)
(-0.0487841 0.0208891 0)
(-0.0516597 0.0204248 0)
(-0.0544558 0.0198392 0)
(-0.0571569 0.0191379 0)
(-0.0597488 0.0183267 0)
(-0.0622176 0.0174121 0)
(-0.0645504 0.0164003 0)
(-0.0667351 0.0152981 0)
(-0.0687605 0.0141123 0)
(-0.0706163 0.0128499 0)
(-0.072293 0.0115181 0)
(-0.0737821 0.0101241 0)
(-0.0750761 0.00867532 0)
(-0.0761683 0.00717934 0)
(-0.0770533 0.00564378 0)
(-0.0777263 0.00407637 0)
(-0.0781838 0.002485 0)
(-0.0784232 0.000877649 0)
(-0.0784429 -0.000737607 0)
(-0.0782425 -0.00235257 0)
(-0.0778224 -0.00395894 0)
(-0.0771844 -0.00554834 0)
(-0.0763311 -0.00711231 0)
(-0.0752662 -0.00864231 0)
(-0.0739948 -0.0101298 0)
(-0.0725227 -0.0115661 0)
(-0.070857 -0.0129426 0)
(-0.069006 -0.0142509 0)
(-0.0669787 -0.0154824 0)
(-0.0647857 -0.0166287 0)
(-0.0624382 -0.0176817 0)
(-0.0599487 -0.0186333 0)
(-0.0573306 -0.0194759 0)
(-0.0545982 -0.0202021 0)
(-0.0517668 -0.0208051 0)
(-0.0488526 -0.0212783 0)
(-0.0458725 -0.021616 0)
(-0.0428441 -0.0218132 0)
(-0.0397856 -0.0218654 0)
(-0.0367157 -0.0217693 0)
(-0.0336537 -0.0215225 0)
(-0.0306188 -0.0211239 0)
(-0.0276307 -0.0205735 0)
(-0.0247089 -0.019873 0)
(-0.0218729 -0.0190257 0)
(-0.0191415 -0.0180367 0)
(-0.0165335 -0.016913 0)
(-0.0140667 -0.0156643 0)
(-0.0117581 -0.0143024 0)
(-0.00962368 -0.0128423 0)
(-0.00767819 -0.0113017 0)
(-0.0059348 -0.00970196 0)
(-0.00440488 -0.00806818 0)
(-0.00309744 -0.00642933 0)
(-0.00201838 -0.00481861 0)
(-0.00116918 -0.0032735 0)
(-0.000543862 -0.00183563 0)
(-0.000127839 -0.00054999 0)
(-0.000149177 0.000758882 0)
(-0.000631962 0.00242656 0)
(-0.00135012 0.00421141 0)
(-0.00231606 0.00606922 0)
(-0.00353243 0.00795932 0)
(-0.00499389 0.00984532 0)
(-0.00669068 0.0116953 0)
(-0.00861011 0.0134815 0)
(-0.0107376 0.0151807 0)
(-0.013057 0.0167732 0)
(-0.0155513 0.0182428 0)
(-0.0182027 0.0195768 0)
(-0.0209924 0.0207649 0)
(-0.0239016 0.0217997 0)
(-0.0269108 0.0226757 0)
(-0.0300005 0.0233896 0)
(-0.0331511 0.0239398 0)
(-0.036343 0.0243261 0)
(-0.0395567 0.0245496 0)
(-0.0427732 0.0246127 0)
(-0.0459737 0.0245184 0)
(-0.0491398 0.0242709 0)
(-0.0522536 0.023875 0)
(-0.0552981 0.023336 0)
(-0.0582567 0.0226598 0)
(-0.0611135 0.0218528 0)
(-0.0638535 0.0209216 0)
(-0.0664624 0.0198733 0)
(-0.0689268 0.0187152 0)
(-0.0712342 0.0174548 0)
(-0.0733729 0.0160997 0)
(-0.0753322 0.0146581 0)
(-0.0771023 0.0131378 0)
(-0.0786744 0.0115473 0)
(-0.0800408 0.00989471 0)
(-0.0811944 0.00818869 0)
(-0.0821296 0.00643784 0)
(-0.0828416 0.00465095 0)
(-0.0833265 0.0028369 0)
(-0.0835817 0.00100472 0)
(-0.0836056 -0.000836453 0)
(-0.0833975 -0.00267735 0)
(-0.082958 -0.00450858 0)
(-0.0822889 -0.00632069 0)
(-0.0813927 -0.00810409 0)