/*--------------------------------*- C++ -*----------------------------------*\
| =========                 |                                                 |
| \\      /  F ield         | OpenFOAM: The Open Source CFD Toolbox           |
|  \\    /   O peration     | Version:  4.1                                   |
|   \\  /    A nd           | Web:      www.OpenFOAM.org                      |
|    \\/     M anipulation  |                                                 |
\*---------------------------------------------------------------------------*/
FoamFile
{
    version     2.0;
    format      ascii;
    class       volVectorField;
    location    "0.00045";
    object      U;
}
// * * * * * * * * * * * * * * * * * * * * * * * * * * * * * * * * * * * * * //

dimensions      [0 1 -1 0 0 0 0];

internalField   nonuniform List<vector> 
1681
(
(-0.00114728 0.00111535 0)
(-0.00423892 0.00148283 0)
(-0.0075767 0.00158146 0)
(-0.0110136 0.00161161 0)
(-0.0144756 0.00161096 0)
(-0.0179094 0.00158779 0)
(-0.0212721 0.00154663 0)
(-0.0245298 0.00149093 0)
(-0.0276547 0.00142323 0)
(-0.0306237 0.00134535 0)
(-0.0334172 0.00125862 0)
(-0.0360174 0.00116404 0)
(-0.0384087 0.00106238 0)
(-0.0405767 0.000954306 0)
(-0.0425084 0.000840437 0)
(-0.0441919 0.000721361 0)
(-0.0456164 0.000597668 0)
(-0.0467727 0.00046997 0)
(-0.0476526 0.000338905 0)
(-0.0482492 0.000205141 0)
(-0.0485572 6.93833e-05 0)
(-0.0485729 -6.76301e-05 0)
(-0.0482939 -0.000205126 0)
(-0.0477198 -0.000342302 0)
(-0.0468518 -0.000478325 0)
(-0.0456929 -0.00061234 0)
(-0.0442482 -0.000743476 0)
(-0.0425244 -0.00087085 0)
(-0.0405304 -0.000993577 0)
(-0.0382768 -0.00111078 0)
(-0.0357764 -0.00122159 0)
(-0.0330437 -0.00132516 0)
(-0.0300951 -0.0014207 0)
(-0.0269486 -0.00150741 0)
(-0.0236242 -0.00158458 0)
(-0.0201432 -0.00165146 0)
(-0.0165286 -0.00170724 0)
(-0.0128055 -0.00175026 0)
(-0.00900087 -0.00177406 0)
(-0.00516807 -0.00172853 0)
(-0.00143068 -0.00137725 0)
(-0.00139088 0.00406331 0)
(-0.00568425 0.00592591 0)
(-0.0102958 0.00632644 0)
(-0.0150292 0.00643642 0)
(-0.0197795 0.00642376 0)
(-0.0244758 0.0063245 0)
(-0.0290642 0.00615669 0)
(-0.0335025 0.00593359 0)
(-0.0377567 0.00566466 0)
(-0.0417979 0.0053566 0)
(-0.045601 0.00501414 0)
(-0.049143 0.00464083 0)
(-0.0524029 0.00423948 0)
(-0.0553614 0.00381253 0)
(-0.0580007 0.00336223 0)
(-0.0603045 0.0028908 0)
(-0.0622579 0.0024005 0)
(-0.0638476 0.00189369 0)
(-0.0650622 0.00137286 0)
(-0.0658919 0.000840643 0)
(-0.0663289 0.000299828 0)
(-0.0663675 -0.000246639 0)
(-0.0660042 -0.00079566 0)
(-0.0652379 -0.001344 0)
(-0.0640697 -0.00188829 0)
(-0.0625035 -0.00242508 0)
(-0.0605456 -0.00295083 0)
(-0.0582051 -0.00346193 0)
(-0.0554937 -0.00395479 0)
(-0.0524259 -0.00442582 0)
(-0.0490188 -0.00487149 0)
(-0.0452922 -0.00528836 0)
(-0.0412683 -0.00567314 0)
(-0.0369719 -0.0060227 0)
(-0.03243 -0.00633409 0)
(-0.0276717 -0.00660455 0)
(-0.0227275 -0.00683127 0)
(-0.0176299 -0.00700953 0)
(-0.0124064 -0.00711473 0)
(-0.00711806 -0.00693603 0)
(-0.00181481 -0.00506361 0)
(-0.00128753 0.00696811 0)
(-0.00553934 0.010439 0)
(-0.0104436 0.011179 0)
(-0.0154801 0.0113685 0)
(-0.0205175 0.0113262 0)
(-0.02547 0.0111326 0)
(-0.0302883 0.0108235 0)
(-0.0349355 0.0104227 0)
(-0.039382 0.00994571 0)
(-0.0436017 0.00940293 0)
(-0.0475707 0.0088017 0)
(-0.0512668 0.00814746 0)
(-0.054669 0.00744466 0)
(-0.0577577 0.00669722 0)
(-0.0605145 0.00590886 0)
(-0.0629224 0.00508333 0)
(-0.0649661 0.00422446 0)
(-0.0666314 0.00333633 0)
(-0.0679063 0.00242323 0)
(-0.0687804 0.00148977 0)
(-0.0692452 0.000540803 0)
(-0.0692947 -0.000418497 0)
(-0.0689248 -0.00138269 0)
(-0.0681341 -0.00234609 0)
(-0.0669235 -0.00330277 0)
(-0.0652968 -0.00424662 0)
(-0.0632605 -0.00517138 0)
(-0.0608236 -0.0060707 0)
(-0.0579984 -0.0069382 0)
(-0.0547997 -0.00776754 0)
(-0.0512453 -0.00855246 0)
(-0.0473557 -0.00928689 0)
(-0.0431543 -0.00996498 0)
(-0.0386667 -0.0105812 0)
(-0.0339212 -0.0111305 0)
(-0.0289483 -0.0116081 0)
(-0.0237798 -0.0120096 0)
(-0.0184502 -0.0123282 0)
(-0.0129887 -0.0125238 0)
(-0.00746672 -0.0122357 0)
(-0.00190361 -0.00892804 0)
(-0.000932796 0.00914183 0)
(-0.00480559 0.0150078 0)
(-0.0101158 0.0162506 0)
(-0.0154553 0.0165229 0)
(-0.0207287 0.0164126 0)
(-0.0258549 0.0160888 0)
(-0.0308078 0.0156124 0)
(-0.0355651 0.0150159 0)
(-0.0401061 0.0143184 0)
(-0.0444099 0.0135319 0)
(-0.0484556 0.0126649 0)
(-0.0522225 0.0117238 0)
(-0.0556904 0.0107141 0)
(-0.0588398 0.00964078 0)
(-0.0616525 0.00850889 0)
(-0.0641113 0.00732352 0)
(-0.0662004 0.00609005 0)
(-0.0679055 0.00481418 0)
(-0.0692138 0.00350203 0)
(-0.0701147 0.00216012 0)
(-0.0705993 0.000795437 0)
(-0.070661 -0.00058463 0)
(-0.0702954 -0.00197226 0)
(-0.0695006 -0.00335926 0)
(-0.0682773 -0.00473708 0)
(-0.066629 -0.00609689 0)
(-0.064562 -0.00742967 0)
(-0.0620852 -0.0087262 0)
(-0.0592108 -0.00997726 0)
(-0.0559539 -0.0111736 0)
(-0.0523322 -0.0123063 0)
(-0.0483668 -0.0133663 0)
(-0.0440812 -0.0143453 0)
(-0.0395018 -0.0152353 0)
(-0.0346573 -0.0160289 0)
(-0.029579 -0.0167192 0)
(-0.0242998 -0.0173001 0)
(-0.018855 -0.0177619 0)
(-0.0132753 -0.0180467 0)
(-0.00763667 -0.0176397 0)
(-0.00194839 -0.0128878 0)
(-0.000414387 0.0111824 0)
(-0.0030797 0.0201632 0)
(-0.00955612 0.0218939 0)
(-0.015412 0.0220343 0)
(-0.021004 0.0217272 0)
(-0.0263289 0.0212031 0)
(-0.0314271 0.0205213 0)
(-0.0363021 0.0197075 0)
(-0.0409454 0.0187764 0)
(-0.0453417 0.0177376 0)
(-0.0494729 0.0165985 0)
(-0.0533197 0.0153654 0)
(-0.0568625 0.0140442 0)
(-0.0600819 0.0126406 0)
(-0.0629596 0.0111607 0)
(-0.065478 0.0096107 0)
(-0.0676209 0.00799749 0)
(-0.0693735 0.00632835 0)
(-0.0707225 0.00461114 0)
(-0.0716567 0.00285432 0)
(-0.0721666 0.00106696 0)
(-0.0722449 -0.000741281 0)
(-0.0718868 -0.00256019 0)
(-0.0710899 -0.00437902 0)
(-0.0698544 -0.00618656 0)
(-0.0681834 -0.0079712 0)
(-0.0660828 -0.00972102 0)
(-0.0635615 -0.0114239 0)
(-0.0606316 -0.0130677 0)
(-0.057308 -0.0146401 0)
(-0.053609 -0.0161293 0)
(-0.0495557 -0.0175235 0)
(-0.0451722 -0.0188115 0)
(-0.0404854 -0.0199827 0)
(-0.035525 -0.0210273 0)
(-0.0303229 -0.0219363 0)
(-0.0249132 -0.0227015 0)
(-0.0193326 -0.0233102 0)
(-0.0136128 -0.0236864 0)
(-0.00783297 -0.0231579 0)
(-0.00199884 -0.016941 0)
(-2.83426e-269 -0.000103597 0)
(-0.00285862 0.0243527 0)
(-0.00965824 0.0279743 0)
(-0.0157704 0.0278876 0)
(-0.0215479 0.0272685 0)
(-0.0270252 0.0264831 0)
(-0.0322569 0.0255653 0)
(-0.037254 0.0245174 0)
(-0.0420117 0.0233422 0)
(-0.0465163 0.0220435 0)
(-0.0507505 0.0206262 0)
(-0.0546951 0.0190955 0)
(-0.0583305 0.0174572 0)
(-0.0616372 0.0157177 0)
(-0.0645963 0.0138837 0)
(-0.0671897 0.0119626 0)
(-0.0694007 0.00996267 0)
(-0.0712137 0.00789261 0)
(-0.0726147 0.00576204 0)
(-0.0735917 0.00358135 0)
(-0.0741343 0.0013617 0)
(-0.0742347 -0.000884982 0)
(-0.0738872 -0.00314603 0)
(-0.0730887 -0.00540809 0)
(-0.0718389 -0.00765719 0)
(-0.0701402 -0.00987887 0)
(-0.0679984 -0.0120582 0)
(-0.0654219 -0.0141801 0)
(-0.0624228 -0.0162291 0)
(-0.059016 -0.0181901 0)
(-0.0552201 -0.0200479 0)
(-0.0510564 -0.0217879 0)
(-0.0465498 -0.023396 0)
(-0.041728 -0.0248587 0)
(-0.0366214 -0.0261637 0)
(-0.0312632 -0.0272997 0)
(-0.0256888 -0.0282561 0)
(-0.0199365 -0.029017 0)
(-0.0140391 -0.029488 0)
(-0.00807901 -0.0288351 0)
(-0.00206118 -0.0211132 0)
(-2.28135e-26 7.60047e-25 0)
(-0.00445562 0.0298465 0)
(-0.0106059 0.034142 0)
(-0.016618 0.0338173 0)
(-0.0224066 0.0329193 0)
(-0.0279704 0.0318868 0)
(-0.0333153 0.0307359 0)
(-0.0384358 0.0294524 0)
(-0.043319 0.0280297 0)
(-0.0479478 0.0264668 0)
(-0.0523028 0.0247664 0)
(-0.0563639 0.0229328 0)
(-0.0601106 0.0209717 0)
(-0.0635229 0.0188899 0)
(-0.066581 0.0166949 0)
(-0.0692661 0.0143951 0)
(-0.0715606 0.0119999 0)
(-0.0734479 0.00951965 0)
(-0.0749132 0.00696562 0)
(-0.0759434 0.00435008 0)
(-0.0765273 0.0016863 0)
(-0.0766558 -0.00101147 0)
(-0.0763226 -0.00372808 0)
(-0.0755235 -0.00644749 0)
(-0.0742575 -0.00915288 0)
(-0.0725265 -0.0118268 0)
(-0.0703355 -0.0144512 0)
(-0.0676929 -0.0170078 0)
(-0.0646103 -0.0194779 0)
(-0.0611029 -0.021843 0)
(-0.0571893 -0.0240847 0)
(-0.0528916 -0.0261852 0)
(-0.0482351 -0.0281271 0)
(-0.0432485 -0.0298943 0)
(-0.0379634 -0.0314714 0)
(-0.0324145 -0.0328446 0)
(-0.0266387 -0.0340012 0)
(-0.020676 -0.0349214 0)
(-0.014561 -0.0354919 0)
(-0.00837957 -0.0347111 0)
(-0.0021371 -0.0254322 0)
(-1.57693e-78 -5.70336e-27 0)
(-0.00561568 0.03507 0)
(-0.0116615 0.040107 0)
(-0.0176635 0.0397037 0)
(-0.0234773 0.0386223 0)
(-0.0291263 0.0373923 0)
(-0.0345891 0.0360318 0)
(-0.0398442 0.0345223 0)
(-0.0448684 0.0328544 0)
(-0.0496391 0.0310258 0)
(-0.0541339 0.0290386 0)
(-0.058331 0.026897 0)
(-0.0622085 0.0246071 0)
(-0.0657453 0.0221761 0)
(-0.0689208 0.0196121 0)
(-0.0717151 0.0169248 0)
(-0.0741093 0.0141245 0)
(-0.0760859 0.0112232 0)
(-0.0776289 0.00823376 0)
(-0.0787237 0.00517033 0)
(-0.0793582 0.00204831 0)
(-0.079522 -0.00111571 0)
(-0.0792075 -0.004304 0)
(-0.0784097 -0.00749775 0)
(-0.0771264 -0.0106772 0)
(-0.0753588 -0.0138217 0)
(-0.0731112 -0.0169101 0)
(-0.0703915 -0.0199204 0)
(-0.0672112 -0.0228307 0)
(-0.0635855 -0.0256189 0)
(-0.0595331 -0.0282631 0)
(-0.0550768 -0.0307419 0)
(-0.0502427 -0.0330348 0)
(-0.0450605 -0.0351221 0)
(-0.0395634 -0.0369857 0)
(-0.0337875 -0.038609 0)
(-0.0277717 -0.0399764 0)
(-0.0215582 -0.0410648 0)
(-0.0151836 -0.0417407 0)
(-0.0087379 -0.0408279 0)
(-0.00222755 -0.0299282 0)
(-5.91333e-166 -3.94233e-79 0)
(-0.00726804 0.0404449 0)
(-0.0129698 0.0460783 0)
(-0.0188914 0.0455929 0)
(-0.0247149 0.0443906 0)
(-0.0304607 0.0430112 0)
(-0.0360607 0.0414683 0)
(-0.0414713 0.0397451 0)
(-0.0466576 0.0378358 0)
(-0.0515912 0.0357408 0)
(-0.0562467 0.0334634 0)
(-0.0606003 0.0310088 0)
(-0.0646291 0.0283837 0)
(-0.0683105 0.0255958 0)
(-0.0716227 0.0226542 0)
(-0.0745446 0.0195694 0)
(-0.077056 0.0163529 0)
(-0.079138 0.0130181 0)
(-0.0807731 0.00957945 0)
(-0.0819454 0.00605302 0)
(-0.082641 0.00245634 0)
(-0.0828483 -0.00119161 0)
(-0.0825582 -0.00487048 0)
(-0.0817644 -0.00855858 0)
(-0.0804635 -0.012233 0)
(-0.0786557 -0.0158699 0)
(-0.0763445 -0.0194444 0)
(-0.0735372 -0.0229312 0)
(-0.070245 -0.0263045 0)
(-0.066483 -0.0295383 0)
(-0.0622702 -0.0326071 0)
(-0.0576301 -0.0354856 0)
(-0.0525896 -0.0381496 0)
(-0.0471798 -0.040576 0)
(-0.0414354 -0.0427434 0)
(-0.0353945 -0.044632 0)
(-0.0290983 -0.0462235 0)
(-0.0225913 -0.0474906 0)
(-0.0159126 -0.0482789 0)
(-0.00915751 -0.0472293 0)
(-0.00233346 -0.0346333 0)
(-7.7983e-267 0.000514037 0)
(-0.0106207 0.0452402 0)
(-0.0146364 0.0514987 0)
(-0.0202426 0.0513372 0)
(-0.0260511 0.0502118 0)
(-0.0319331 0.0487674 0)
(-0.0377102 0.0470738 0)
(-0.043309 0.0451475 0)
(-0.0486845 0.0429986 0)
(-0.053805 0.040635 0)
(-0.0586438 0.0380632 0)
(-0.063176 0.03529 0)
(-0.0673775 0.0323228 0)
(-0.0712246 0.0291699 0)
(-0.0746941 0.0258411 0)
(-0.0777634 0.0223478 0)
(-0.0804108 0.0187028 0)
(-0.0826157 0.0149204 0)
(-0.0843589 0.011017 0)
(-0.0856228 0.0070104 0)
(-0.0863916 0.0029203 0)
(-0.0866521 -0.0012319 0)
(-0.0863934 -0.00542311 0)
(-0.0856075 -0.00962865 0)
(-0.0842898 -0.0138224 0)
(-0.0824391 -0.0179769 0)
(-0.0800579 -0.0220636 0)
(-0.0771528 -0.0260533 0)
(-0.0737345 -0.0299162 0)
(-0.069818 -0.0336221 0)
(-0.0654228 -0.0371414 0)
(-0.0605726 -0.0404448 0)
(-0.0552958 -0.0435038 0)
(-0.0496248 -0.0462917 0)
(-0.0435961 -0.0487831 0)
(-0.0372502 -0.0509551 0)
(-0.0306305 -0.0527862 0)
(-0.023785 -0.0542446 0)
(-0.0167552 -0.0551538 0)
(-0.00964247 -0.0539619 0)
(-0.00245588 -0.0395816 0)
(-0.00205615 0.028645 0)
(-0.010079 0.0525893 0)
(-0.0149331 0.0568915 0)
(-0.0210313 0.0571873 0)
(-0.0272712 0.0562409 0)
(-0.0334752 0.0547532 0)
(-0.0395182 0.0529044 0)
(-0.045353 0.050767 0)
(-0.0509494 0.0483717 0)
(-0.0562827 0.0457337 0)
(-0.0613285 0.0428619 0)
(-0.0660623 0.0397638 0)
(-0.0704593 0.036447 0)
(-0.0744945 0.0329204 0)
(-0.0781431 0.0291942 0)
(-0.0813811 0.0252805 0)
(-0.0841849 0.0211932 0)
(-0.0865319 0.0169479 0)
(-0.0884009 0.0125624 0)
(-0.0897723 0.00805634 0)
(-0.0906282 0.00345167 0)
(-0.0909532 -0.00122777 0)
(-0.0907344 -0.00595608 0)
(-0.0899619 -0.0107054 0)
(-0.0886294 -0.0154463 0)
(-0.0867341 -0.0201474 0)
(-0.0842773 -0.0247763 0)
(-0.0812646 -0.0292995 0)
(-0.0777062 -0.0336828 0)
(-0.0736169 -0.0378916 0)
(-0.0690165 -0.0418916 0)
(-0.0639293 -0.045649 0)
(-0.058385 -0.0491311 0)
(-0.0524174 -0.0523064 0)
(-0.0460654 -0.0551458 0)
(-0.0393717 -0.0576225 0)
(-0.0323831 -0.0597113 0)
(-0.0251506 -0.0613759 0)
(-0.0177193 -0.0624158 0)
(-0.0101976 -0.0610753 0)
(-0.00259602 -0.0448099 0)
(-0.000650448 0.0321263 0)
(-0.00356867 0.0592158 0)
(-0.013351 0.0639942 0)
(-0.0212465 0.0640725 0)
(-0.0284389 0.0628612 0)
(-0.0351376 0.0611212 0)
(-0.0415133 0.0590285 0)
(-0.0476174 0.0566421 0)
(-0.0534596 0.0539836 0)
(-0.0590286 0.0510622 0)
(-0.0643046 0.0478839 0)
(-0.0692637 0.0444542 0)
(-0.0738799 0.0407802 0)
(-0.0781269 0.0368708 0)
(-0.0819784 0.0327363 0)
(-0.085408 0.0283896 0)
(-0.0883903 0.0238452 0)
(-0.0909006 0.0191201 0)
(-0.0929152 0.0142334 0)
(-0.0944121 0.00920664 0)
(-0.0953709 0.00406385 0)
(-0.0957738 -0.0011686 0)
(-0.0956054 -0.00646191 0)
(-0.0948536 -0.0117849 0)
(-0.0935099 -0.0171045 0)
(-0.0915696 -0.0223853 0)
(-0.0890325 -0.0275906 0)
(-0.0859031 -0.0326823 0)
(-0.0821908 -0.0376215 0)
(-0.0779102 -0.0423685 0)
(-0.0730812 -0.0468841 0)
(-0.067729 -0.0511294 0)
(-0.0618843 -0.0550667 0)
(-0.0555829 -0.0586598 0)
(-0.048866 -0.0618749 0)
(-0.0417793 -0.0646809 0)
(-0.0343729 -0.0670488 0)
(-0.0267017 -0.0689367 0)
(-0.0188148 -0.070119 0)
(-0.0108284 -0.0686232 0)
(-0.00275532 -0.0503577 0)
(5.95388e-284 -0.000162612 0)
(-0.00334327 0.0643055 0)
(-0.0141452 0.072847 0)
(-0.0226125 0.0720012 0)
(-0.030166 0.0700552 0)
(-0.0371449 0.0678609 0)
(-0.0437761 0.0654479 0)
(-0.0501314 0.0627848 0)
(-0.0562255 0.0598526 0)
(-0.0620476 0.0566427 0)
(-0.0675759 0.0531531 0)
(-0.0727843 0.0493862 0)
(-0.0776448 0.0453478 0)
(-0.0821291 0.0410462 0)
(-0.0862086 0.0364922 0)
(-0.0898549 0.031699 0)
(-0.0930401 0.0266818 0)
(-0.095737 0.0214587 0)
(-0.0979194 0.0160502 0)
(-0.0995622 0.0104794 0)
(-0.100642 0.00477246 0)
(-0.101139 -0.00104163 0)
(-0.101034 -0.00693109 0)
(-0.100312 -0.0128613 0)
(-0.0989623 -0.0187952 0)
(-0.0969781 -0.0246932 0)
(-0.0943573 -0.0305138 0)
(-0.0911028 -0.036214 0)
(-0.0872233 -0.0417493 0)
(-0.0827327 -0.0470751 0)
(-0.0776511 -0.0521462 0)
(-0.0720046 -0.0569183 0)
(-0.0658251 -0.061348 0)
(-0.0591506 -0.0653938 0)
(-0.0520246 -0.0690168 0)
(-0.0444963 -0.0721808 0)
(-0.0366195 -0.0748524 0)
(-0.0284539 -0.0769839 0)
(-0.0200526 -0.0783221 0)
(-0.0115414 -0.0766635 0)
(-0.00293542 -0.0562677 0)
(-9.1022e-248 2.14049e-165 0)
(-0.00978116 0.0728352 0)
(-0.0177053 0.0816012 0)
(-0.0253256 0.0798423 0)
(-0.0325361 0.0773309 0)
(-0.0395248 0.0747814 0)
(-0.0463123 0.0720983 0)
(-0.0528935 0.0691837 0)
(-0.0592453 0.0659899 0)
(-0.0653389 0.0624957 0)
(-0.0711433 0.0586943 0)
(-0.0766271 0.0545862 0)
(-0.081759 0.0501766 0)
(-0.0865078 0.0454738 0)
(-0.0908427 0.0404888 0)
(-0.0947328 0.035235 0)
(-0.0981477 0.0297286 0)
(-0.101057 0.0239882 0)
(-0.103432 0.0180355 0)
(-0.105244 0.0118953 0)
(-0.106467 0.0055958 0)
(-0.107076 -0.000831515 0)
(-0.10705 -0.00735172 0)
(-0.10637 -0.0139266 0)
(-0.105022 -0.0205148 0)
(-0.102997 -0.0270721 0)
(-0.10029 -0.033552 0)
(-0.0969033 -0.0399058 0)
(-0.0928434 -0.0460835 0)
(-0.0881241 -0.052034 0)
(-0.0827654 -0.0577063 0)
(-0.0767942 -0.0630497 0)
(-0.0702437 -0.0680145 0)
(-0.0631541 -0.0725533 0)
(-0.0555718 -0.0766211 0)
(-0.0475497 -0.0801764 0)
(-0.0391459 -0.0831804 0)
(-0.0304252 -0.0855787 0)
(-0.0214459 -0.0870888 0)
(-0.0123442 -0.0852593 0)
(-0.00313826 -0.0625868 0)
(-8.56195e-165 0.00140196 0)
(-0.0182585 0.0791073 0)
(-0.0220814 0.0882384 0)
(-0.0284569 0.0867972 0)
(-0.0351502 0.0843627 0)
(-0.042099 0.0817626 0)
(-0.0490413 0.0789469 0)
(-0.0558666 0.0758431 0)
(-0.0625019 0.0724149 0)
(-0.0688956 0.0686471 0)
(-0.0750055 0.0645358 0)
(-0.0807942 0.0600834 0)
(-0.0862269 0.0552961 0)
(-0.0912698 0.0501829 0)
(-0.0958896 0.0447551 0)
(-0.100053 0.0390266 0)
(-0.103727 0.0330136 0)
(-0.106878 0.0267356 0)
(-0.109474 0.0202151 0)
(-0.111482 0.0134783 0)
(-0.112873 0.00655532 0)
(-0.113616 -0.00051984 0)
(-0.113687 -0.00770903 0)
(-0.113063 -0.0149702 0)
(-0.111728 -0.0222574 0)
(-0.109667 -0.0295214 0)
(-0.106874 -0.0367101 0)
(-0.103349 -0.0437686 0)
(-0.0990963 -0.0506406 0)
(-0.0941296 -0.0572683 0)
(-0.0884686 -0.0635938 0)
(-0.0821409 -0.0695592 0)
(-0.0751812 -0.0751081 0)
(-0.067632 -0.080186 0)
(-0.0595429 -0.0847413 0)
(-0.0509707 -0.0887261 0)
(-0.0419784 -0.0920957 0)
(-0.0326368 -0.0947881 0)
(-0.0230097 -0.0964886 0)
(-0.0132457 -0.0944799 0)
(-0.00336613 -0.0693663 0)
(-0.00560785 0.0562733 0)
(-0.0207831 0.0897574 0)
(-0.0244276 0.0940567 0)
(-0.0306492 0.0932601 0)
(-0.0374539 0.091328 0)
(-0.0446274 0.0888993 0)
(-0.0518585 0.0860545 0)
(-0.0590045 0.0828088 0)
(-0.0659753 0.0791666 0)
(-0.0727097 0.0751321 0)
(-0.0791605 0.0707109 0)
(-0.0852871 0.06591 0)
(-0.0910525 0.0607381 0)
(-0.0964213 0.0552051 0)
(-0.101358 0.0493229 0)
(-0.105827 0.0431051 0)
(-0.109793 0.0365682 0)
(-0.113218 0.0297316 0)
(-0.116067 0.0226185 0)
(-0.118302 0.0152561 0)
(-0.119888 0.00767622 0)
(-0.120792 -8.45597e-05 0)
(-0.120983 -0.00798482 0)
(-0.120434 -0.0159783 0)
(-0.119124 -0.0240144 0)
(-0.117036 -0.0320382 0)
(-0.114159 -0.0399913 0)
(-0.11049 -0.0478122 0)
(-0.106033 -0.0554373 0)
(-0.1008 -0.0628015 0)
(-0.0948112 -0.0698391 0)
(-0.0880939 -0.0764844 0)
(-0.0806848 -0.0826732 0)
(-0.0726286 -0.0883431 0)
(-0.0639784 -0.0934349 0)
(-0.0547953 -0.0978936 0)
(-0.0451478 -0.101667 0)
(-0.0351131 -0.104685 0)
(-0.0247619 -0.106598 0)
(-0.0142561 -0.104401 0)
(-0.00362168 -0.0766629 0)
(-0.00506397 0.0658463 0)
(-0.0165827 0.0963308 0)
(-0.0239822 0.100598 0)
(-0.0316327 0.100366 0)
(-0.0393037 0.0987694 0)
(-0.0470388 0.0964451 0)
(-0.0547279 0.0935522 0)
(-0.0622897 0.0901589 0)
(-0.0696578 0.0862993 0)
(-0.076779 0.0819939 0)
(-0.0836091 0.0772573 0)
(-0.0901085 0.0721014 0)
(-0.0962403 0.0665368 0)
(-0.101968 0.0605746 0)
(-0.107256 0.0542263 0)
(-0.112066 0.0475052 0)
(-0.116359 0.0404269 0)
(-0.120094 0.0330106 0)
(-0.123232 0.0252792 0)
(-0.125729 0.0172606 0)
(-0.127544 0.00898811 0)
(-0.12864 0.000500713 0)
(-0.128978 -0.00815677 0)
(-0.128528 -0.0169337 0)
(-0.12726 -0.0257741 0)
(-0.125155 -0.034617 0)
(-0.122198 -0.0433968 0)
(-0.118383 -0.0520449 0)
(-0.113711 -0.0604895 0)
(-0.108194 -0.0686572 0)
(-0.10185 -0.0764736 0)
(-0.0947089 -0.0838646 0)
(-0.0868079 -0.0907569 0)
(-0.0781944 -0.0970794 0)
(-0.0689249 -0.102764 0)
(-0.0590652 -0.107748 0)
(-0.0486897 -0.11197 0)
(-0.0378828 -0.115351 0)
(-0.026723 -0.117502 0)
(-0.0153878 -0.115108 0)
(-0.00390809 -0.0845394 0)
(-0.00421502 0.0761204 0)
(-0.0150327 0.105412 0)
(-0.0239629 0.109094 0)
(-0.0326463 0.108632 0)
(-0.041122 0.106972 0)
(-0.0494831 0.10457 0)
(-0.0577037 0.101547 0)
(-0.0657438 0.0979659 0)
(-0.0735595 0.0938667 0)
(-0.0811095 0.0892763 0)
(-0.0883557 0.0842137 0)
(-0.0952623 0.0786935 0)
(-0.101794 0.0727277 0)
(-0.107916 0.066327 0)
(-0.11359 0.0595019 0)
(-0.118778 0.0522643 0)
(-0.123438 0.0446283 0)
(-0.127524 0.0366113 0)
(-0.130992 0.0282355 0)
(-0.133792 0.019529 0)
(-0.135877 0.0105259 0)
(-0.1372 0.00126755 0)
(-0.137719 -0.00819773 0)
(-0.137393 -0.0178146 0)
(-0.13619 -0.027521 0)
(-0.134083 -0.037249 0)
(-0.131053 -0.0469257 0)
(-0.12709 -0.0564737 0)
(-0.122195 -0.0658124 0)
(-0.116375 -0.0748591 0)
(-0.10965 -0.08353 0)
(-0.102049 -0.0917411 0)
(-0.0936115 -0.0994093 0)
(-0.0843871 -0.106454 0)
(-0.0744358 -0.112796 0)
(-0.0638283 -0.118364 0)
(-0.0526454 -0.123087 0)
(-0.0409795 -0.126874 0)
(-0.0289175 -0.129293 0)
(-0.0166551 -0.126694 0)
(-0.00422909 -0.0930663 0)
(-0.0039058 0.0843715 0)
(-0.0145731 0.115043 0)
(-0.0243668 0.118498 0)
(-0.0338522 0.117751 0)
(-0.0430576 0.115894 0)
(-0.0520533 0.113313 0)
(-0.0608395 0.110092 0)
(-0.0693972 0.10628 0)
(-0.0776982 0.101913 0)
(-0.0857117 0.0970183 0)
(-0.0934069 0.0916163 0)
(-0.100753 0.0857218 0)
(-0.107718 0.0793464 0)
(-0.114268 0.0724992 0)
(-0.120366 0.0651886 0)
(-0.125973 0.0574234 0)
(-0.131042 0.0492148 0)
(-0.135525 0.0405775 0)
(-0.13937 0.0315318 0)
(-0.142521 0.0221047 0)
(-0.144921 0.0123309 0)
(-0.146517 0.00225372 0)
(-0.147255 -0.00807469 0)
(-0.147088 -0.0185937 0)
(-0.145976 -0.0292348 0)
(-0.143885 -0.0399222 0)
(-0.140793 -0.0505741 0)
(-0.136684 -0.0611037 0)
(-0.131556 -0.0714204 0)
(-0.125416 -0.0814313 0)
(-0.118283 -0.0910417 0)
(-0.110185 -0.100157 0)
(-0.101164 -0.108683 0)
(-0.0912725 -0.116529 0)
(-0.0805727 -0.123604 0)
(-0.0691406 -0.129824 0)
(-0.0570635 -0.13511 0)
(-0.0444426 -0.139353 0)
(-0.0313745 -0.142078 0)
(-0.0180754 -0.139265 0)
(-0.00458923 -0.102323 0)
(-0.00387121 0.0924919 0)
(-0.0147579 0.125262 0)
(-0.0251693 0.128646 0)
(-0.0353272 0.127615 0)
(-0.0451982 0.125506 0)
(-0.0548171 0.122685 0)
(-0.0641823 0.119215 0)
(-0.0732811 0.115134 0)
(-0.0820939 0.110472 0)
(-0.0905982 0.105253 0)
(-0.09877 0.0994977 0)
(-0.106584 0.0932194 0)
(-0.114013 0.0864276 0)
(-0.121025 0.0791286 0)
(-0.127586 0.0713269 0)
(-0.133654 0.0630265 0)
(-0.13918 0.0542339 0)
(-0.144112 0.0449592 0)
(-0.148388 0.0352192 0)
(-0.151945 0.0250385 0)
(-0.154716 0.0144519 0)
(-0.156636 0.0035045 0)
(-0.157641 -0.00774768 0)
(-0.157674 -0.019238 0)
(-0.156685 -0.0308904 0)
(-0.154635 -0.04262 0)
(-0.151494 -0.0543351 0)
(-0.147243 -0.065938 0)
(-0.141876 -0.0773269 0)
(-0.135399 -0.0883974 0)
(-0.127829 -0.0990431 0)
(-0.119197 -0.109158 0)
(-0.109545 -0.118635 0)
(-0.0989253 -0.127371 0)
(-0.0874061 -0.135264 0)
(-0.0750668 -0.142218 0)
(-0.0620011 -0.148136 0)
(-0.0483194 -0.152898 0)
(-0.0341289 -0.155972 0)
(-0.0196695 -0.15294 0)
(-0.004994 -0.1124 0)
(-0.00397831 0.100742 0)
(-0.0152825 0.135996 0)
(-0.0262762 0.139437 0)
(-0.037068 0.138159 0)
(-0.0475789 0.135781 0)
(-0.0578157 0.132687 0)
(-0.0677678 0.128934 0)
(-0.0774229 0.124551 0)
(-0.086766 0.119568 0)
(-0.0957811 0.114007 0)
(-0.104451 0.107885 0)
(-0.112757 0.101216 0)
(-0.120677 0.0940043 0)
(-0.128185 0.0862525 0)
(-0.135246 0.0779591 0)
(-0.141821 0.0691215 0)
(-0.147858 0.0597385 0)
(-0.153296 0.0498134 0)
(-0.158068 0.0393571 0)
(-0.162097 0.0283906 0)
(-0.165304 0.0169474 0)
(-0.167609 0.00507422 0)
(-0.168938 -0.00716837 0)
(-0.16922 -0.0197069 0)
(-0.168395 -0.0324562 0)
(-0.166415 -0.0453211 0)
(-0.163244 -0.0581981 0)
(-0.158857 -0.0709773 0)
(-0.153246 -0.0835441 0)
(-0.146415 -0.095781 0)
(-0.13838 -0.107569 0)
(-0.129174 -0.118789 0)
(-0.118839 -0.129322 0)
(-0.107431 -0.139052 0)
(-0.0950174 -0.147862 0)
(-0.0816829 -0.155641 0)
(-0.0675262 -0.162278 0)
(-0.0526667 -0.167631 0)
(-0.0372234 -0.171108 0)
(-0.0214632 -0.167854 0)
(-0.00545027 -0.123399 0)
(-0.00416243 0.109341 0)
(-0.0160216 0.147305 0)
(-0.0276305 0.150875 0)
(-0.0390652 0.149373 0)
(-0.0502183 0.146717 0)
(-0.0610778 0.143326 0)
(-0.0716251 0.13926 0)
(-0.0818469 0.134548 0)
(-0.091732 0.12922 0)
(-0.101271 0.123299 0)
(-0.110454 0.116801 0)
(-0.11927 0.109736 0)
(-0.127705 0.102106 0)
(-0.135737 0.0939071 0)
(-0.143338 0.085129 0)
(-0.150467 0.0757598 0)
(-0.157072 0.0657877 0)
(-0.163085 0.0552056 0)
(-0.168427 0.0440155 0)
(-0.173006 0.0322324 0)
(-0.176727 0.0198872 0)
(-0.179494 0.0070283 0)
(-0.181215 -0.00627844 0)
(-0.181805 -0.0199511 0)
(-0.181192 -0.0338938 0)
(-0.179317 -0.0479988 0)
(-0.176138 -0.0621489 0)
(-0.171625 -0.07622 0)
(-0.165765 -0.090083 0)
(-0.158563 -0.103606 0)
(-0.150035 -0.116656 0)
(-0.140215 -0.129099 0)
(-0.129146 -0.140806 0)
(-0.116884 -0.151644 0)
(-0.1035 -0.161485 0)
(-0.0890779 -0.170198 0)
(-0.0737201 -0.177656 0)
(-0.0575541 -0.183689 0)
(-0.040711 -0.187638 0)
(-0.023489 -0.184163 0)
(-0.0059667 -0.135441 0)
(-0.00439868 0.118411 0)
(-0.0169222 0.159262 0)
(-0.0292053 0.162998 0)
(-0.0413179 0.161277 0)
(-0.0531336 0.158329 0)
(-0.0646291 0.154615 0)
(-0.0757806 0.150205 0)
(-0.0865758 0.145136 0)
(-0.0970084 0.13944 0)
(-0.107077 0.133143 0)
(-0.11678 0.12626 0)
(-0.126117 0.1188 0)
(-0.135082 0.110759 0)
(-0.143664 0.102126 0)
(-0.151841 0.0928807 0)
(-0.159576 0.0829973 0)
(-0.166813 0.0724486 0)
(-0.173479 0.0612125 0)
(-0.179479 0.0492776 0)
(-0.184703 0.0366496 0)
(-0.189034 0.0233556 0)
(-0.192354 0.00944568 0)
(-0.194548 -0.0050076 0)
(-0.195517 -0.0199115 0)
(-0.195173 -0.0351567 0)
(-0.193446 -0.0506203 0)
(-0.190286 -0.0661691 0)
(-0.185657 -0.0816623 0)
(-0.179546 -0.0969539 0)
(-0.171955 -0.111896 0)
(-0.162904 -0.126339 0)
(-0.152428 -0.140138 0)
(-0.140572 -0.153147 0)
(-0.127394 -0.165224 0)
(-0.112962 -0.176224 0)
(-0.0973572 -0.186 0)
(-0.0806819 -0.1944 0)
(-0.0630683 -0.201225 0)
(-0.0446592 -0.205732 0)
(-0.0257887 -0.202047 0)
(-0.00655459 -0.148667 0)
(-0.00467921 0.128047 0)
(-0.017969 0.171951 0)
(-0.0309987 0.175867 0)
(-0.0438395 0.17391 0)
(-0.0563497 0.170642 0)
(-0.0684995 0.166569 0)
(-0.0802636 0.161779 0)
(-0.0916337 0.15632 0)
(-0.102612 0.150231 0)
(-0.113206 0.143541 0)
(-0.123426 0.136268 0)
(-0.133284 0.128417 0)
(-0.142788 0.119981 0)
(-0.151938 0.110939 0)
(-0.160723 0.101258 0)
(-0.169115 0.0908936 0)
(-0.177058 0.0797973 0)
(-0.184468 0.0679242 0)
(-0.191233 0.0552435 0)
(-0.197218 0.0417468 0)
(-0.202276 0.0274555 0)
(-0.206258 0.012422 0)
(-0.209026 -0.00327133 0)
(-0.210457 -0.0195174 0)
(-0.210449 -0.0361895 0)
(-0.20892 -0.0531465 0)
(-0.20581 -0.0702363 0)
(-0.20108 -0.0872984 0)
(-0.194713 -0.104167 0)
(-0.186713 -0.120675 0)
(-0.177105 -0.136658 0)
(-0.165929 -0.151954 0)
(-0.153235 -0.166408 0)
(-0.13908 -0.179866 0)
(-0.123526 -0.192172 0)
(-0.106646 -0.203161 0)
(-0.088534 -0.212653 0)
(-0.06932 -0.22041 0)
(-0.049156 -0.22559 0)
(-0.0284179 -0.221721 0)
(-0.00722903 -0.163244 0)
(-0.00500507 0.13834 0)
(-0.0191696 0.185463 0)
(-0.0330305 0.189552 0)
(-0.0466612 0.187323 0)
(-0.059905 0.183687 0)
(-0.0727284 0.179205 0)
(-0.0851095 0.173988 0)
(-0.0970486 0.1681 0)
(-0.10856 0.161588 0)
(-0.119664 0.154488 0)
(-0.130388 0.14682 0)
(-0.140755 0.138588 0)
(-0.150791 0.12978 0)
(-0.160515 0.120368 0)
(-0.169935 0.110302 0)
(-0.179035 0.0995126 0)
(-0.187763 0.0879209 0)
(-0.196027 0.0754489 0)
(-0.203689 0.0620358 0)
(-0.210579 0.0476527 0)
(-0.216509 0.0323129 0)
(-0.221291 0.0160735 0)
(-0.224751 -0.000968419 0)
(-0.226743 -0.0186851 0)
(-0.227148 -0.0369274 0)
(-0.225873 -0.0555318 0)
(-0.22285 -0.0743241 0)
(-0.218033 -0.0931215 0)
(-0.211404 -0.111735 0)
(-0.202971 -0.129973 0)
(-0.192766 -0.147653 0)
(-0.180842 -0.164598 0)
(-0.167258 -0.180647 0)
(-0.152071 -0.19564 0)
(-0.135332 -0.209416 0)
(-0.117095 -0.221793 0)
(-0.0974303 -0.232564 0)
(-0.0764538 -0.241436 0)
(-0.0543201 -0.247443 0)
(-0.0314526 -0.243439 0)
(-0.00801086 -0.179379 0)
(-0.00538337 0.149391 0)
(-0.0205493 0.199906 0)
(-0.0353428 0.204139 0)
(-0.0498362 0.201577 0)
(-0.0638563 0.197501 0)
(-0.0773696 0.192539 0)
(-0.0903635 0.186832 0)
(-0.102854 0.180463 0)
(-0.114873 0.173493 0)
(-0.126461 0.165963 0)
(-0.137657 0.157896 0)
(-0.148504 0.149296 0)
(-0.159049 0.14015 0)
(-0.169335 0.130424 0)
(-0.179401 0.120047 0)
(-0.189256 0.108921 0)
(-0.198859 0.0969208 0)
(-0.208109 0.0839185 0)
(-0.216834 0.0698079 0)
(-0.224814 0.054529 0)
(-0.2318 0.0380846 0)
(-0.237549 0.0205416 0)
(-0.241844 0.00202146 0)
(-0.244511 -0.0173174 0)
(-0.245417 -0.0372956 0)
(-0.24446 -0.0577234 0)
(-0.241564 -0.0784028 0)
(-0.236676 -0.0991251 0)
(-0.229774 -0.119672 0)
(-0.220872 -0.139824 0)
(-0.21002 -0.159371 0)
(-0.197292 -0.178124 0)
(-0.182765 -0.195918 0)
(-0.166502 -0.212604 0)
(-0.148537 -0.228027 0)
(-0.128885 -0.242001 0)
(-0.107568 -0.254282 0)
(-0.0846646 -0.264512 0)
(-0.0603162 -0.271564 0)
(-0.0350008 -0.267515 0)
(-0.00892981 -0.197327 0)
(-0.00582727 0.161319 0)
(-0.0221534 0.215407 0)
(-0.0380041 0.219731 0)
(-0.0534457 0.216738 0)
(-0.0682857 0.212117 0)
(-0.0824961 0.206576 0)
(-0.0960836 0.200296 0)
(-0.109091 0.193384 0)
(-0.121577 0.185914 0)
(-0.133603 0.177931 0)
(-0.145226 0.169458 0)
(-0.156506 0.160505 0)
(-0.167508 0.151061 0)
(-0.178316 0.141093 0)
(-0.189014 0.130515 0)
(-0.199659 0.119186 0)
(-0.210236 0.106915 0)
(-0.220636 0.0934982 0)
(-0.230641 0.0787566 0)
(-0.239952 0.0625831 0)
(-0.248231 0.0449678 0)
(-0.255154 0.0259987 0)
(-0.260452 0.00583924 0)
(-0.263922 -0.0153039 0)
(-0.265424 -0.0372104 0)
(-0.264856 -0.0596618 0)
(-0.262133 -0.082438 0)
(-0.257191 -0.105303 0)
(-0.249999 -0.128003 0)
(-0.240577 -0.150275 0)
(-0.229003 -0.171873 0)
(-0.215395 -0.192589 0)
(-0.19987 -0.212269 0)
(-0.182506 -0.230795 0)
(-0.163311 -0.248048 0)
(-0.142235 -0.263855 0)
(-0.119208 -0.277946 0)
(-0.0942228 -0.289867 0)
(-0.0673814 -0.298278 0)
(-0.0392207 -0.294344 0)
(-0.0100297 -0.217422 0)
(-0.00635784 0.174281 0)
(-0.0240534 0.232131 0)
(-0.0411203 0.236453 0)
(-0.0576103 0.232883 0)
(-0.0733092 0.227564 0)
(-0.0882054 0.221308 0)
(-0.102342 0.214347 0)
(-0.115806 0.206817 0)
(-0.128697 0.198801 0)
(-0.141102 0.190339 0)
(-0.153092 0.181451 0)
(-0.164732 0.172152 0)
(-0.176108 0.16245 0)
(-0.18735 0.15233 0)
(-0.198622 0.141701 0)
(-0.210065 0.130369 0)
(-0.221722 0.118045 0)
(-0.233481 0.1044 0)
(-0.245055 0.0891423 0)
(-0.256024 0.0720878 0)
(-0.265908 0.0532142 0)
(-0.274266 0.0326536 0)
(-0.280758 0.0106455 0)
(-0.285165 -0.0125253 0)
(-0.28736 -0.0365813 0)
(-0.287256 -0.061279 0)
(-0.284765 -0.0863889 0)
(-0.279793 -0.111652 0)
(-0.272284 -0.136764 0)
(-0.262262 -0.161398 0)
(-0.249851 -0.185245 0)
(-0.235248 -0.208069 0)
(-0.218655 -0.22974 0)
(-0.200189 -0.250214 0)
(-0.179829 -0.269461 0)
(-0.15741 -0.28737 0)
(-0.132696 -0.303654 0)
(-0.105515 -0.317739 0)
(-0.0758674 -0.32798 0)
(-0.0443515 -0.324438 0)
(-0.011377 -0.240107 0)
(-0.00700793 0.188485 0)
(-0.0263603 0.250294 0)
(-0.0448519 0.254458 0)
(-0.0625067 0.250092 0)
(-0.0790895 0.243854 0)
(-0.0946253 0.236695 0)
(-0.109224 0.228918 0)
(-0.123049 0.220687 0)
(-0.136258 0.212081 0)
(-0.148971 0.203118 0)
(-0.16126 0.193799 0)
(-0.173172 0.184143 0)
(-0.18479 0.174202 0)
(-0.196302 0.164027 0)
(-0.208009 0.153552 0)
(-0.220208 0.142515 0)
(-0.233052 0.130477 0)