/*--------------------------------*- C++ -*----------------------------------*\
| =========                 |                                                 |
| \\      /  F ield         | OpenFOAM: The Open Source CFD Toolbox           |
|  \\    /   O peration     | Version:  4.1                                   |
|   \\  /    A nd           | Web:      www.OpenFOAM.org                      |
|    \\/     M anipulation  |                                                 |
\*---------------------------------------------------------------------------*/
FoamFile
{
    version     2.0;
    format      ascii;
    class       volVectorField;
    location    "0.056";
    object      U;
}
// * * * * * * * * * * * * * * * * * * * * * * * * * * * * * * * * * * * * * //

dimensions      [0 1 -1 0 0 0 0];

internalField   nonuniform List<vector> 
100
(
(-0.00213539 0.00192768 0)
(-0.00534047 0.00193517 0)
(-0.0111537 0.00187873 0)
(-0.0137635 0.00082476 0)
(-0.016275 0.000387613 0)
(-0.0164589 -0.000938988 0)
(-0.0146492 -0.00144163 0)
(-0.0121122 -0.00266146 0)
(-0.00603197 -0.00279126 0)
(-0.00255187 -0.00278902 0)
(-0.0031262 0.00557701 0)
(-0.00896301 0.00697343 0)
(-0.0179753 0.00681257 0)
(-0.0223174 0.00403972 0)
(-0.0260553 0.00268833 0)
(-0.026327 -0.000984109 0)
(-0.0235815 -0.00253687 0)
(-0.0193471 -0.00618216 0)
(-0.00998502 -0.00656844 0)
(-0.00363596 -0.00576634 0)
(-0.00367593 0.0140995 0)
(-0.0103857 0.0166381 0)
(-0.0205756 0.0155566 0)
(-0.0255038 0.00851173 0)
(-0.0298663 0.00472061 0)
(-0.03028 -0.00397151 0)
(-0.0275462 -0.00825173 0)
(-0.022836 -0.0168616 0)
(-0.0122443 -0.01861 0)
(-0.00471907 -0.0167537 0)
(-0.00573301 0.0194288 0)
(-0.0148039 0.0235367 0)
(-0.0280157 0.0221255 0)
(-0.0344567 0.0129959 0)
(-0.039817 0.00800966 0)
(-0.0406029 -0.00347583 0)
(-0.0376911 -0.00920323 0)
(-0.0318088 -0.0213798 0)
(-0.0181202 -0.0239043 0)
(-0.00735921 -0.0221899 0)
(-0.00684326 0.0350283 0)
(-0.0174072 0.0387412 0)
(-0.0325459 0.0358701 0)
(-0.0399392 0.019657 0)
(-0.0464208 0.0113452 0)
(-0.0476938 -0.00714817 0)
(-0.0456934 -0.0169535 0)
(-0.0395629 -0.0377697 0)
(-0.024409 -0.0435425 0)
(-0.0107282 -0.0433023 0)
(-0.0134032 0.0430095 0)
(-0.0298973 0.0484987 0)
(-0.0492674 0.0448307 0)
(-0.0592472 0.0262961 0)
(-0.0664746 0.0166634 0)
(-0.068822 -0.00438414 0)
(-0.0682835 -0.0158386 0)
(-0.0611969 -0.0422613 0)
(-0.0424941 -0.0509609 0)
(-0.0194947 -0.0560514 0)
(-0.0155493 0.0795119 0)
(-0.03524 0.0741725 0)
(-0.0563426 0.0666672 0)
(-0.0671612 0.0356308 0)
(-0.0753038 0.021788 0)
(-0.0780213 -0.0073041 0)
(-0.0809784 -0.0244314 0)
(-0.0754934 -0.0663348 0)
(-0.0601038 -0.0862583 0)
(-0.0293138 -0.108114 0)
(-0.038968 0.0917763 0)
(-0.0709028 0.0877092 0)
(-0.0830646 0.0769253 0)
(-0.0918399 0.044235 0)
(-0.0941425 0.0290382 0)
(-0.0963935 0.000948757 0)
(-0.1057 -0.0156084 0)
(-0.100941 -0.062284 0)
(-0.0950041 -0.0931656 0)
(-0.0459264 -0.142698 0)
(-0.0337407 0.192635 0)
(-0.0382977 0.116744 0)
(-0.0281029 0.0907658 0)
(-0.0179371 0.0443971 0)
(-0.0108811 0.0278824 0)
(3.42955e-05 0.000873386 0)
(-0.00833363 -0.0192782 0)
(0.00110991 -0.082371 0)
(-0.0252116 -0.142601 0)
(-0.00722719 -0.25726 0)
(0.148033 0.157404 0)
(0.218492 0.0793832 0)
(0.33477 0.0578544 0)
(0.373535 0.0260827 0)
(0.402301 0.0139661 0)
(0.418481 -0.00192431 0)
(0.399067 -0.0113467 0)
(0.390934 -0.0429471 0)
(0.269947 -0.0741055 0)
(0.17835 -0.163468 0)
)
;

boundaryField
{
    movingWall
    {
        type            fixedValue;
        value           uniform (1 0 0);
    }
    fixedWalls
    {
        type            noSlip;
    }
    frontAndBack
    {
        type            empty;
    }
}


// ************************************************************************* //
