/*--------------------------------*- C++ -*----------------------------------*\
| =========                 |                                                 |
| \\      /  F ield         | OpenFOAM: The Open Source CFD Toolbox           |
|  \\    /   O peration     | Version:  4.1                                   |
|   \\  /    A nd           | Web:      www.OpenFOAM.org                      |
|    \\/     M anipulation  |                                                 |
\*---------------------------------------------------------------------------*/
FoamFile
{
    version     2.0;
    format      ascii;
    class       volVectorField;
    location    "0.116";
    object      U;
}
// * * * * * * * * * * * * * * * * * * * * * * * * * * * * * * * * * * * * * //

dimensions      [0 1 -1 0 0 0 0];

internalField   nonuniform List<vector> 
100
(
(-0.00170737 0.00103211 0)
(-0.00475013 0.00126332 0)
(-0.0121449 0.00147306 0)
(-0.0158686 0.000524242 0)
(-0.0198658 0.000179925 0)
(-0.0206598 -0.00124834 0)
(-0.0186947 -0.00184268 0)
(-0.0151562 -0.00328805 0)
(-0.00663102 -0.00325753 0)
(-0.00258344 -0.0028435 0)
(-0.00313056 0.00548236 0)
(-0.0105914 0.00909844 0)
(-0.0240901 0.00995455 0)
(-0.0315599 0.00696475 0)
(-0.0384209 0.00503215 0)
(-0.0397267 -0.000221284 0)
(-0.036118 -0.00327801 0)
(-0.0290027 -0.00904256 0)
(-0.0138003 -0.00914269 0)
(-0.00424743 -0.00634677 0)
(-0.00384752 0.0147511 0)
(-0.0133584 0.021996 0)
(-0.0296121 0.0226914 0)
(-0.0389224 0.014396 0)
(-0.0476195 0.0086465 0)
(-0.0497676 -0.00413848 0)
(-0.0464361 -0.0123935 0)
(-0.0380394 -0.0262291 0)
(-0.0195066 -0.0281393 0)
(-0.00614823 -0.0212062 0)
(-0.0060587 0.022539 0)
(-0.0187353 0.0345964 0)
(-0.0394583 0.0357594 0)
(-0.0516488 0.0246709 0)
(-0.0628095 0.0164682 0)
(-0.0667335 -0.00156986 0)
(-0.0643366 -0.0142124 0)
(-0.0547792 -0.0359163 0)
(-0.0311171 -0.0403092 0)
(-0.0102572 -0.0314651 0)
(-0.00711888 0.039774 0)
(-0.0218495 0.0550574 0)
(-0.0457208 0.056136 0)
(-0.0603636 0.0369838 0)
(-0.0748342 0.0241745 0)
(-0.0817604 -0.00368736 0)
(-0.0831753 -0.0242394 0)
(-0.0748207 -0.0608075 0)
(-0.0480066 -0.0732215 0)
(-0.0166754 -0.0636402 0)
(-0.0140237 0.0509504 0)
(-0.0355617 0.0725513 0)
(-0.0654247 0.0744971 0)
(-0.0845675 0.0532074 0)
(-0.101992 0.0387831 0)
(-0.11294 0.00653764 0)
(-0.119683 -0.0196727 0)
(-0.113403 -0.0707977 0)
(-0.0825061 -0.0968309 0)
(-0.0301007 -0.0950105 0)
(-0.0156515 0.0902713 0)
(-0.0390254 0.105713 0)
(-0.0705762 0.106383 0)
(-0.0904354 0.0721184 0)
(-0.109564 0.0533519 0)
(-0.121849 0.0119676 0)
(-0.136113 -0.0235636 0)
(-0.134638 -0.100705 0)
(-0.111254 -0.157805 0)
(-0.0434738 -0.179542 0)
(-0.0404093 0.10385 0)
(-0.0745825 0.125993 0)
(-0.0912053 0.126218 0)
(-0.101287 0.0911097 0)
(-0.106536 0.0717717 0)
(-0.109338 0.0325413 0)
(-0.125231 -0.00411522 0)
(-0.122817 -0.0949394 0)
(-0.120071 -0.183984 0)
(-0.0514245 -0.247627 0)
(-0.0359715 0.208192 0)
(-0.0285192 0.154636 0)
(-0.00241862 0.136375 0)
(0.028387 0.0851245 0)
(0.0499658 0.0632307 0)
(0.0801827 0.0274009 0)
(0.0781996 -0.0087117 0)
(0.0909333 -0.110021 0)
(0.0333304 -0.229815 0)
(0.00957937 -0.359675 0)
(0.148786 0.162619 0)
(0.237634 0.0898697 0)
(0.381668 0.0712667 0)
(0.450453 0.0382134 0)
(0.501371 0.0235347 0)
(0.539814 0.00477553 0)
(0.531751 -0.00821288 0)
(0.526237 -0.045036 0)
(0.375074 -0.088691 0)
(0.210541 -0.190696 0)
)
;

boundaryField
{
    movingWall
    {
        type            fixedValue;
        value           uniform (1 0 0);
    }
    fixedWalls
    {
        type            noSlip;
    }
    frontAndBack
    {
        type            empty;
    }
}


// ************************************************************************* //
