/*--------------------------------*- C++ -*----------------------------------*\
| =========                 |                                                 |
| \\      /  F ield         | OpenFOAM: The Open Source CFD Toolbox           |
|  \\    /   O peration     | Version:  4.1                                   |
|   \\  /    A nd           | Web:      www.OpenFOAM.org                      |
|    \\/     M anipulation  |                                                 |
\*---------------------------------------------------------------------------*/
FoamFile
{
    version     2.0;
    format      ascii;
    class       volVectorField;
    location    "0.088";
    object      U;
}
// * * * * * * * * * * * * * * * * * * * * * * * * * * * * * * * * * * * * * //

dimensions      [0 1 -1 0 0 0 0];

internalField   nonuniform List<vector> 
100
(
(-0.00194461 0.00138728 0)
(-0.00513813 0.00153509 0)
(-0.0120867 0.00163117 0)
(-0.0153497 0.000595042 0)
(-0.0187645 0.000192242 0)
(-0.0192461 -0.00124062 0)
(-0.017277 -0.00180186 0)
(-0.0141598 -0.00318633 0)
(-0.0065182 -0.00322366 0)
(-0.00268199 -0.00297998 0)
(-0.00322709 0.00574782 0)
(-0.0101818 0.00852206 0)
(-0.0221163 0.00888386 0)
(-0.0282488 0.00584142 0)
(-0.0338103 0.00412151 0)
(-0.0345628 -0.000546119 0)
(-0.0311961 -0.00289291 0)
(-0.0253005 -0.00782193 0)
(-0.0123821 -0.00805811 0)
(-0.00413294 -0.00618956 0)
(-0.00386097 0.0148094 0)
(-0.0123213 0.0202102 0)
(-0.0262667 0.0199674 0)
(-0.0336115 0.0118349 0)
(-0.0404196 0.00680595 0)
(-0.0416319 -0.00445729 0)
(-0.0384095 -0.0109045 0)
(-0.0316139 -0.0226433 0)
(-0.0164203 -0.0245243 0)
(-0.00569951 -0.0198437 0)
(-0.0060461 0.0217806 0)
(-0.0174077 0.0306566 0)
(-0.0353066 0.030427 0)
(-0.044951 0.0197026 0)
(-0.0535375 0.0127495 0)
(-0.0557713 -0.00270194 0)
(-0.0528253 -0.0120828 0)
(-0.0446925 -0.0297085 0)
(-0.0252487 -0.0331769 0)
(-0.00916658 -0.0277403 0)
(-0.00710302 0.0385222 0)
(-0.0203609 0.0491586 0)
(-0.0409554 0.0480698 0)
(-0.0523857 0.0293064 0)
(-0.063244 0.0180586 0)
(-0.0671452 -0.00628583 0)
(-0.0665156 -0.021914 0)
(-0.0586996 -0.0516276 0)
(-0.0369503 -0.0606068 0)
(-0.0142787 -0.05537 0)
(-0.0139975 0.0486815 0)
(-0.0340868 0.0638666 0)
(-0.0602914 0.0627037 0)
(-0.0756123 0.0414619 0)
(-0.0884875 0.0284809 0)
(-0.095011 0.00040558 0)
(-0.0977613 -0.018971 0)
(-0.0903124 -0.0588887 0)
(-0.0644421 -0.0758073 0)
(-0.0258672 -0.0777008 0)
(-0.015771 0.0875637 0)
(-0.0386804 0.0947707 0)
(-0.0670076 0.0908816 0)
(-0.0834927 0.0560959 0)
(-0.0980996 0.0382519 0)
(-0.105899 0.000911078 0)
(-0.114914 -0.0264813 0)
(-0.111218 -0.0878002 0)
(-0.0909747 -0.126261 0)
(-0.0384252 -0.148819 0)
(-0.040435 0.101301 0)
(-0.0755252 0.11363 0)
(-0.091837 0.107824 0)
(-0.102485 0.0715535 0)
(-0.107606 0.05251 0)
(-0.1111 0.0168256 0)
(-0.125242 -0.0108119 0)
(-0.121369 -0.0820018 0)
(-0.115643 -0.144489 0)
(-0.0501096 -0.204591 0)
(-0.0355652 0.206435 0)
(-0.0324587 0.144335 0)
(-0.0131259 0.121012 0)
(0.00889804 0.0694408 0)
(0.0231273 0.048478 0)
(0.0445075 0.0150805 0)
(0.0379916 -0.0153052 0)
(0.04944 -0.102384 0)
(0.00482795 -0.198754 0)
(0.00316905 -0.323381 0)
(0.149922 0.163437 0)
(0.235702 0.0886802 0)
(0.371977 0.068324 0)
(0.430791 0.0347573 0)
(0.472896 0.0203423 0)
(0.502488 0.00217214 0)
(0.488289 -0.00952828 0)
(0.480912 -0.0447853 0)
(0.338659 -0.0852604 0)
(0.200186 -0.183145 0)
)
;

boundaryField
{
    movingWall
    {
        type            fixedValue;
        value           uniform (1 0 0);
    }
    fixedWalls
    {
        type            noSlip;
    }
    frontAndBack
    {
        type            empty;
    }
}


// ************************************************************************* //
