/*--------------------------------*- C++ -*----------------------------------*\
| =========                 |                                                 |
| \\      /  F ield         | OpenFOAM: The Open Source CFD Toolbox           |
|  \\    /   O peration     | Version:  4.1                                   |
|   \\  /    A nd           | Web:      www.OpenFOAM.org                      |
|    \\/     M anipulation  |                                                 |
\*---------------------------------------------------------------------------*/
FoamFile
{
    version     2.0;
    format      ascii;
    class       volVectorField;
    location    "0.12";
    object      U;
}
// * * * * * * * * * * * * * * * * * * * * * * * * * * * * * * * * * * * * * //

dimensions      [0 1 -1 0 0 0 0];

internalField   nonuniform List<vector> 
100
(
(-0.0016767 0.000995343 0)
(-0.00469604 0.00123686 0)
(-0.0121323 0.00146088 0)
(-0.0159156 0.00052538 0)
(-0.019985 0.000189453 0)
(-0.0208251 -0.00123583 0)
(-0.018864 -0.00183498 0)
(-0.0152694 -0.00328636 0)
(-0.00663823 -0.00324777 0)
(-0.00256216 -0.0028125 0)
(-0.00311427 0.00543434 0)
(-0.0106273 0.00914378 0)
(-0.0242995 0.0100676 0)
(-0.031944 0.00709657 0)
(-0.0389723 0.00514029 0)
(-0.0403634 -0.000183444 0)
(-0.0367327 -0.00334019 0)
(-0.0294594 -0.00920843 0)
(-0.013973 -0.00929091 0)
(-0.00425123 -0.00636479 0)
(-0.00384352 0.0147334 0)
(-0.0134815 0.0221952 0)
(-0.0300115 0.0230258 0)
(-0.0395878 0.0147402 0)
(-0.0485374 0.00890915 0)
(-0.0508309 -0.00405875 0)
(-0.0474993 -0.0125635 0)
(-0.0388939 -0.0266649 0)
(-0.0199213 -0.0285809 0)
(-0.00619471 -0.0213458 0)
(-0.00605739 0.0226082 0)
(-0.0188925 0.0350441 0)
(-0.0399529 0.036411 0)
(-0.0524858 0.0253184 0)
(-0.0639956 0.0169695 0)
(-0.0681821 -0.0013903 0)
(-0.0658926 -0.0144906 0)
(-0.0561697 -0.0367381 0)
(-0.031942 -0.0412782 0)
(-0.0103899 -0.0319504 0)
(-0.00712013 0.0399109 0)
(-0.0220232 0.0557519 0)
(-0.0462827 0.0571481 0)
(-0.0613528 0.0380214 0)
(-0.0763168 0.0250512 0)
(-0.0837041 -0.00322946 0)
(-0.0854515 -0.0244612 0)
(-0.0770758 -0.0619643 0)
(-0.0495706 -0.0749207 0)
(-0.0169778 -0.0647278 0)
(-0.01402 0.0511924 0)
(-0.0356968 0.0735563 0)
(-0.0659581 0.0759573 0)
(-0.0855753 0.0547667 0)
(-0.103601 0.0402278 0)
(-0.11519 0.00749935 0)
(-0.122529 -0.0196537 0)
(-0.116462 -0.0723464 0)
(-0.0849032 -0.0997827 0)
(-0.0306176 -0.0973848 0)
(-0.0156321 0.0905383 0)
(-0.0389888 0.106941 0)
(-0.0708332 0.108265 0)
(-0.0910487 0.0742315 0)
(-0.110708 0.0554734 0)
(-0.123559 0.0136702 0)
(-0.138489 -0.0229639 0)
(-0.137309 -0.102287 0)
(-0.113569 -0.162055 0)
(-0.0440483 -0.183563 0)
(-0.0403796 0.104039 0)
(-0.0743103 0.127271 0)
(-0.0908156 0.128327 0)
(-0.100688 0.0935435 0)
(-0.105796 0.0743042 0)
(-0.108364 0.0347137 0)
(-0.124322 -0.00314245 0)
(-0.122129 -0.0965587 0)
(-0.119973 -0.189048 0)
(-0.0515404 -0.252946 0)
(-0.0360032 0.208169 0)
(-0.0280924 0.155508 0)
(-0.0011791 0.137949 0)
(0.03072 0.0869061 0)
(0.0533309 0.0650089 0)
(0.084739 0.0289717 0)
(0.0834931 -0.00775855 0)
(0.096399 -0.110661 0)
(0.0371944 -0.233151 0)
(0.0103539 -0.363655 0)
(0.148616 0.162423 0)
(0.237581 0.0898619 0)
(0.382304 0.0714658 0)
(0.452104 0.0385132 0)
(0.504041 0.0238435 0)
(0.543512 0.00504418 0)
(0.53626 -0.00810201 0)
(0.531006 -0.0451149 0)
(0.378958 -0.0889879 0)
(0.211623 -0.191354 0)
)
;

boundaryField
{
    movingWall
    {
        type            fixedValue;
        value           uniform (1 0 0);
    }
    fixedWalls
    {
        type            noSlip;
    }
    frontAndBack
    {
        type            empty;
    }
}


// ************************************************************************* //
