/*--------------------------------*- C++ -*----------------------------------*\
| =========                 |                                                 |
| \\      /  F ield         | OpenFOAM: The Open Source CFD Toolbox           |
|  \\    /   O peration     | Version:  4.1                                   |
|   \\  /    A nd           | Web:      www.OpenFOAM.org                      |
|    \\/     M anipulation  |                                                 |
\*---------------------------------------------------------------------------*/
FoamFile
{
    version     2.0;
    format      ascii;
    class       volVectorField;
    location    "0.0274";
    object      U;
}
// * * * * * * * * * * * * * * * * * * * * * * * * * * * * * * * * * * * * * //

dimensions      [0 1 -1 0 0 0 0];

internalField   nonuniform List<vector> 
441
(
(0.00328502 -0.0046538 0)
(0.00802284 -0.00276899 0)
(-0.00069235 -2.27895e-165 0)
(0.00156347 -2.43416e-266 0)
(-0.00979791 -0.00625443 0)
(-0.00156347 -2.54718e-232 0)
(-1.08629e-202 -3.85159e-203 0)
(-9.62708e-204 -4.75772e-228 0)
(-1.34463e-212 -1.96674e-213 0)
(-0.00473947 7.22148e-266 0)
(-0.0560422 0.0189595 0)
(-0.0714726 0.0103013 0)
(-0.0822625 0.00507832 0)
(-0.0755943 0.00106692 0)
(-0.0665799 -0.000524646 0)
(-0.0499753 -0.0018062 0)
(-0.0345887 -0.00160264 0)
(-0.0183704 -0.00170194 0)
(-0.0060606 -0.000237784 0)
(-0.000106445 0.000383352 0)
(0.00335336 0.0021421 0)
(0.00292781 -0.00643865 0)
(-0.00363999 0.00675634 0)
(-0.0286964 0.00759354 0)
(-0.0564555 0.0111318 0)
(-0.0953686 0.00865869 0)
(-0.128611 -0.00524911 0)
(-0.157838 -0.000679355 0)
(-0.184085 0.00103716 0)
(-0.206138 0.00963593 0)
(-0.228724 0.049565 0)
(-0.244289 0.0461569 0)
(-0.239793 0.0161917 0)
(-0.232029 -0.00134354 0)
(-0.206427 -0.0173004 0)
(-0.176737 -0.0251191 0)
(-0.136167 -0.0311614 0)
(-0.0972643 -0.0298008 0)
(-0.0579957 -0.0278988 0)
(-0.0270325 -0.0176417 0)
(-0.00796646 -0.0105276 0)
(0.00318684 0.00130051 0)
(0.0060621 -0.00455525 0)
(-0.00675953 0.0284594 0)
(-0.0508624 0.051385 0)
(-0.105804 0.0647045 0)
(-0.168467 0.0649215 0)
(-0.230876 0.0590718 0)
(-0.293742 0.0534428 0)
(-0.339714 0.046666 0)
(-0.384022 0.0428486 0)
(-0.401506 0.0418472 0)
(-0.393282 0.030806 0)
(-0.379059 -0.000956572 0)
(-0.356027 -0.0277229 0)
(-0.31602 -0.054058 0)
(-0.26913 -0.069975 0)
(-0.209107 -0.0814782 0)
(-0.150946 -0.0787543 0)
(-0.0919341 -0.0723141 0)
(-0.045316 -0.0492623 0)
(-0.0139136 -0.0301603 0)
(0.00429246 -0.00211288 0)
(0.00596729 -0.00590322 0)
(-0.0123907 0.0652305 0)
(-0.0797216 0.106776 0)
(-0.154435 0.130682 0)
(-0.23824 0.13402 0)
(-0.318224 0.122376 0)
(-0.392477 0.109312 0)
(-0.45214 0.0919529 0)
(-0.498222 0.0730616 0)
(-0.521546 0.0565787 0)
(-0.521094 0.0234372 0)
(-0.501575 -0.0220052 0)
(-0.469285 -0.0645108 0)
(-0.415847 -0.105122 0)
(-0.353642 -0.131849 0)
(-0.275218 -0.150547 0)
(-0.199205 -0.14648 0)
(-0.121187 -0.134936 0)
(-0.060102 -0.0949507 0)
(-0.0170785 -0.0613966 0)
(0.00624405 -0.00798751 0)
(6.0274e-165 0.00149182 0)
(-0.0173959 0.113754 0)
(-0.109336 0.192701 0)
(-0.198082 0.222055 0)
(-0.29995 0.227854 0)
(-0.39384 0.21187 0)
(-0.482724 0.186439 0)
(-0.552564 0.151667 0)
(-0.607159 0.111806 0)
(-0.634307 0.0653386 0)
(-0.636622 0.0112166 0)
(-0.616121 -0.0525094 0)
(-0.577687 -0.112779 0)
(-0.513954 -0.169886 0)
(-0.438303 -0.209611 0)
(-0.341262 -0.236492 0)
(-0.247434 -0.231439 0)
(-0.147357 -0.212229 0)
(-0.0720225 -0.151838 0)
(-0.014566 -0.0971712 0)
(0.0125463 -0.0120504 0)
(-5.00898e-266 0.00485051 0)
(-0.0715017 0.178757 0)
(-0.148462 0.28582 0)
(-0.251253 0.32296 0)
(-0.357521 0.329754 0)
(-0.46244 0.306179 0)
(-0.558546 0.268572 0)
(-0.638418 0.216651 0)
(-0.699935 0.155446 0)
(-0.735911 0.0853746 0)
(-0.74722 0.005429 0)
(-0.729968 -0.0817945 0)
(-0.69065 -0.166499 0)
(-0.619284 -0.245766 0)
(-0.531823 -0.3041 0)
(-0.415577 -0.343319 0)
(-0.301799 -0.339428 0)
(-0.176489 -0.312937 0)
(-0.0839885 -0.226098 0)
(-0.00866962 -0.148846 0)
(0.015813 -0.00910462 0)
(-0.019402 0.0762151 0)
(-0.0974362 0.258931 0)
(-0.184585 0.372978 0)
(-0.29458 0.429585 0)
(-0.411964 0.438537 0)
(-0.527074 0.411806 0)
(-0.634708 0.361927 0)
(-0.725617 0.29243 0)
(-0.798572 0.209221 0)
(-0.845417 0.112488 0)
(-0.86713 0.00570959 0)
(-0.856946 -0.109266 0)
(-0.820448 -0.222592 0)
(-0.74467 -0.329285 0)
(-0.647372 -0.411928 0)
(-0.510125 -0.46769 0)
(-0.374767 -0.468408 0)
(-0.215366 -0.431754 0)
(-0.106686 -0.316834 0)
(0.00364486 -0.198469 0)
(5.39866e-266 -0.00395325 0)
(-0.0138042 0.123967 0)
(-0.0901179 0.344995 0)
(-0.199193 0.483675 0)
(-0.324178 0.551203 0)
(-0.45576 0.562719 0)
(-0.584027 0.529417 0)
(-0.70381 0.467599 0)
(-0.808413 0.380596 0)
(-0.895076 0.275687 0)
(-0.957306 0.153532 0)
(-0.994358 0.0172615 0)
(-0.996942 -0.12937 0)
(-0.969258 -0.278433 0)
(-0.894241 -0.420566 0)
(-0.789974 -0.537996 0)
(-0.632353 -0.619005 0)
(-0.470647 -0.632577 0)
(-0.2739 -0.586028 0)
(-0.136815 -0.440999 0)
(-0.00120724 -0.263924 0)
(1.89338e-24 -1.62277e-24 0)
(-0.0118699 0.177176 0)
(-0.092869 0.442631 0)
(-0.217119 0.605837 0)
(-0.355607 0.684653 0)
(-0.502034 0.697512 0)
(-0.643793 0.658689 0)
(-0.777667 0.585809 0)
(-0.897531 0.482944 0)
(-1.00083 0.358094 0)
(-1.08183 0.21138 0)
(-1.13838 0.0458836 0)
(-1.1599 -0.13472 0)
(-1.14773 -0.324115 0)
(-1.08047 -0.509392 0)
(-0.97444 -0.671815 0)
(-0.797411 -0.788965 0)
(-0.606317 -0.82344 0)
(-0.360595 -0.769086 0)
(-0.184782 -0.583322 0)
(-0.00338193 -0.340924 0)
(7.76011e-77 -4.73344e-25 0)
(-0.0104297 0.229534 0)
(-0.0936928 0.551903 0)
(-0.230583 0.747429 0)
(-0.381445 0.836936 0)
(-0.541639 0.851702 0)
(-0.696824 0.805372 0)
(-0.844404 0.721932 0)
(-0.980465 0.603704 0)
(-1.10173 0.460368 0)
(-1.20477 0.29065 0)
(-1.28543 0.0955736 0)
(-1.33276 -0.121036 0)
(-1.34447 -0.357575 0)
(-1.29446 -0.596018 0)
(-1.19468 -0.820515 0)
(-1.00315 -0.99156 0)
(-0.780143 -1.06793 0)
(-0.476019 -1.01523 0)
(-0.246385 -0.79371 0)
(-0.00492927 -0.46062 0)
(2.1575e-164 -1.94003e-77 0)
(-0.0111966 0.278318 0)
(-0.101381 0.661142 0)
(-0.252339 0.89167 0)
(-0.416008 0.993777 0)
(-0.588873 1.01162 0)
(-0.756109 0.959858 0)
(-0.915311 0.86876 0)
(-1.06607 0.739213 0)
(-1.20396 0.582266 0)
(-1.32971 0.394541 0)
(-1.43637 0.174414 0)
(-1.51536 -0.0759721 0)
(-1.55878 -0.360928 0)
(-1.53812 -0.659859 0)
(-1.45671 -0.960388 0)
(-1.26226 -1.20596 0)
(-1.01236 -1.34597 0)
(-0.646413 -1.30824 0)
(-0.350121 -1.04463 0)
(-0.0606828 -0.59679 0)
(1.34406e-265 0.0104279 0)
(-0.0129906 0.343259 0)
(-0.109255 0.795255 0)
(-0.272355 1.06381 0)
(-0.44603 1.17442 0)
(-0.627654 1.19327 0)
(-0.802976 1.13208 0)
(-0.969058 1.03282 0)
(-1.13013 0.892194 0)
(-1.28012 0.72433 0)
(-1.42525 0.522504 0)
(-1.55605 0.281097 0)
(-1.66803 0.000299303 0)
(-1.74852 -0.335006 0)
(-1.76785 -0.700376 0)
(-1.71983 -1.09637 0)
(-1.53976 -1.44143 0)
(-1.27414 -1.68335 0)
(-0.842439 -1.68847 0)
(-0.450466 -1.37509 0)
(-0.0600241 -0.826282 0)
(0.0417117 -0.0582742 0)
(-0.0178654 0.39634 0)
(-0.127054 0.917614 0)
(-0.308478 1.22566 0)
(-0.493394 1.3459 0)
(-0.679464 1.36687 0)
(-0.856951 1.29881 0)
(-1.01994 1.19504 0)
(-1.18163 1.0488 0)
(-1.33164 0.87707 0)
(-1.48592 0.669866 0)
(-1.63008 0.417534 0)
(-1.76986 0.11658 0)
(-1.88478 -0.259477 0)
(-1.95346 -0.68832 0)
(-1.95392 -1.18477 0)
(-1.81601 -1.65337 0)
(-1.56525 -2.03792 0)
(-1.07213 -2.13847 0)
(-0.598839 -1.82019 0)
(0.0329611 -1.094 0)
(1.98862e-231 -0.0104279 0)
(-0.0243101 0.491089 0)
(-0.145427 1.08899 0)
(-0.340906 1.43401 0)
(-0.530556 1.54654 0)
(-0.711837 1.55993 0)
(-0.88092 1.47285 0)
(-1.0281 1.35932 0)
(-1.17591 1.20375 0)
(-1.30923 1.02903 0)
(-1.45407 0.820484 0)
(-1.59227 0.56423 0)
(-1.74136 0.254205 0)
(-1.8778 -0.152854 0)
(-1.99227 -0.632734 0)
(-2.05555 -1.23513 0)
(-1.99636 -1.83504 0)
(-1.81689 -2.42881 0)
(-1.34407 -2.67084 0)
(-0.816355 -2.47657 0)
(-0.0039343 -1.45611 0)
(5.05947e-202 4.17038e-184 0)
(-0.0419931 0.558826 0)
(-0.191626 1.22809 0)
(-0.410609 1.60667 0)
(-0.603598 1.71113 0)
(-0.763474 1.7153 0)
(-0.906817 1.61133 0)
(-1.01208 1.48935 0)
(-1.12162 1.32822 0)
(-1.20866 1.1551 0)
(-1.31634 0.952848 0)
(-1.41649 0.705107 0)
(-1.5485 0.403435 0)
(-1.67729 -0.00694634 0)
(-1.82967 -0.508028 0)
(-1.95045 -1.1751 0)
(-2.0191 -1.89039 0)
(-1.9595 -2.67781 0)
(-1.62512 -3.14805 0)
(-1.10143 -3.14022 0)
(-0.00828926 -1.9362 0)
(1.66815e-183 2.47197e-184 0)
(-0.0617392 0.732333 0)
(-0.236251 1.46189 0)
(-0.462518 1.85507 0)
(-0.639878 1.90058 0)
(-0.756349 1.86992 0)
(-0.850374 1.72183 0)
(-0.889414 1.57792 0)
(-0.933714 1.40058 0)
(-0.946228 1.22487 0)
(-0.984352 1.02875 0)
(-1.01225 0.795155 0)
(-1.08692 0.515888 0)
(-1.17003 0.124964 0)
(-1.31816 -0.357873 0)
(-1.47945 -1.05076 0)
(-1.67256 -1.82407 0)
(-1.81546 -2.83067 0)
(-1.75178 -3.53731 0)
(-1.47982 -4.11422 0)
(-0.438968 -2.60083 0)
(4.13362e-254 -4.17038e-184 0)
(-0.127037 0.842254 0)
(-0.369163 1.61553 0)
(-0.591889 2.00451 0)
(-0.729269 1.99487 0)
(-0.740584 1.92451 0)
(-0.738128 1.73909 0)
(-0.654606 1.57319 0)
(-0.591553 1.38358 0)
(-0.487494 1.20665 0)
(-0.423818 1.02044 0)
(-0.345549 0.808691 0)
(-0.337109 0.565708 0)
(-0.336798 0.226247 0)
(-0.461658 -0.190824 0)
(-0.612689 -0.814263 0)
(-0.967258 -1.54416 0)
(-1.28178 -2.57494 0)
(-1.82006 -3.48404 0)
(-1.81927 -4.37323 0)
(-2.01096 -3.4894 0)
(-2.41642e-264 -0.205691 0)
(-0.180427 1.2493 0)
(-0.449758 1.93084 0)
(-0.594531 2.23707 0)
(-0.622494 2.0495 0)
(-0.474816 1.89255 0)
(-0.326004 1.63571 0)
(-0.0875895 1.43806 0)
(0.112262 1.23376 0)
(0.35043 1.05916 0)
(0.532759 0.888268 0)
(0.7271 0.70714 0)
(0.837237 0.51097 0)
(0.937065 0.244794 0)
(0.889017 -0.0738169 0)
(0.795629 -0.556448 0)
(0.43969 -1.13856 0)
(0.0152308 -2.00647 0)
(-0.761216 -2.95661 0)
(-1.3207 -4.00821 0)
(-1.87646 -4.28734 0)
(-0.822766 -2.23669 0)
(-0.398168 1.43767 0)
(-0.729195 2.0008 0)
(-0.551955 2.17124 0)
(-0.319666 1.85858 0)
(0.168757 1.62941 0)
(0.552323 1.34469 0)
(1.01646 1.13749 0)
(1.37939 0.944142 0)
(1.76168 0.78825 0)
(2.05267 0.646587 0)
(2.34466 0.505807 0)
(2.52797 0.363387 0)
(2.7033 0.176468 0)
(2.70261 -0.0346981 0)
(2.6786 -0.361693 0)
(2.3321 -0.74054 0)
(1.94836 -1.37143 0)
(1.03065 -2.114 0)
(0.234902 -3.25592 0)
(-0.799465 -3.913 0)
(-0.691332 -2.94037 0)
(-0.252362 2.43846 0)
(-0.084925 2.07928 0)
(0.70348 1.87852 0)
(1.33339 1.32199 0)
(2.11229 1.0422 0)
(2.68669 0.782859 0)
(3.27511 0.618663 0)
(3.71649 0.485806 0)
(4.14395 0.387266 0)
(4.46043 0.305445 0)
(4.7631 0.229931 0)
(4.95281 0.156844 0)
(5.13181 0.0655835 0)
(5.14507 -0.0373658 0)
(5.14532 -0.196129 0)
(4.85093 -0.386094 0)
(4.5354 -0.733301 0)
(3.67324 -1.20819 0)
(2.76562 -2.24001 0)
(1.04699 -3.31569 0)
(-0.0413446 -3.8016 0)
(1.67062 1.67294 0)
(2.71972 0.979249 0)
(4.57153 0.751722 0)
(5.41121 0.423961 0)
(6.26678 0.283153 0)
(6.75412 0.172162 0)
(7.20245 0.114012 0)
(7.4907 0.0736267 0)
(7.75334 0.0485851 0)
(7.92567 0.0306146 0)
(8.08652 0.0159162 0)
(8.16847 0.00267002 0)
(8.24847 -0.0145346 0)
(8.21485 -0.0328705 0)
(8.18847 -0.0676462 0)
(7.94333 -0.10305 0)
(7.72322 -0.197175 0)
(6.99479 -0.295679 0)
(6.26923 -0.633228 0)
(4.0517 -1.00697 0)
(2.01518 -1.83048 0)
)
;

boundaryField
{
    movingWall
    {
        type            fixedValue;
        value           uniform (10 0 0);
    }
    fixedWalls
    {
        type            noSlip;
    }
    frontAndBack
    {
        type            empty;
    }
}


// ************************************************************************* //
