/*--------------------------------*- C++ -*----------------------------------*\
| =========                 |                                                 |
| \\      /  F ield         | OpenFOAM: The Open Source CFD Toolbox           |
|  \\    /   O peration     | Version:  4.1                                   |
|   \\  /    A nd           | Web:      www.OpenFOAM.org                      |
|    \\/     M anipulation  |                                                 |
\*---------------------------------------------------------------------------*/
FoamFile
{
    version     2.0;
    format      ascii;
    class       volVectorField;
    location    "0.0867";
    object      U;
}
// * * * * * * * * * * * * * * * * * * * * * * * * * * * * * * * * * * * * * //

dimensions      [0 1 -1 0 0 0 0];

internalField   nonuniform List<vector> 
441
(
(0.00373088 -0.00482609 0)
(0.00975457 -0.00253968 0)
(-0.000634919 -2.20897e-165 0)
(0.00196381 -3.32854e-266 0)
(-0.0083728 -0.00785559 0)
(-0.00196381 -3.05735e-232 0)
(-1.14177e-202 -5.60864e-203 0)
(-1.40208e-203 -7.36032e-228 0)
(-1.72266e-212 -3.2123e-213 0)
(-0.0061513 9.12447e-266 0)
(-0.0754018 0.0246063 0)
(-0.0947209 0.0128661 0)
(-0.106671 0.00588512 0)
(-0.0938127 0.000388813 0)
(-0.0771394 -0.00166322 0)
(-0.0513118 -0.00302984 0)
(-0.0290763 -0.00216527 0)
(-0.00928718 -0.00160191 0)
(0.00270318 0.000743105 0)
(0.00447156 0.0015097 0)
(0.0045634 0.00299656 0)
(0.00384066 -0.00847412 0)
(-0.000918409 0.00683325 0)
(-0.0274596 0.00849977 0)
(-0.0594296 0.0107321 0)
(-0.107175 0.0108988 0)
(-0.152354 -0.00324369 0)
(-0.194942 -0.000151887 0)
(-0.235952 0.00166878 0)
(-0.27237 0.0132647 0)
(-0.309038 0.0671349 0)
(-0.333926 0.0617692 0)
(-0.328103 0.0188309 0)
(-0.312984 -0.00740419 0)
(-0.270384 -0.0307111 0)
(-0.220322 -0.0410293 0)
(-0.157285 -0.0463593 0)
(-0.100318 -0.0396866 0)
(-0.0496772 -0.0314608 0)
(-0.0155423 -0.0139796 0)
(-0.00115367 -0.00409356 0)
(0.0049418 0.00626475 0)
(0.00761702 -0.0082544 0)
(-0.00519356 0.0283731 0)
(-0.0543963 0.0571172 0)
(-0.121266 0.0771472 0)
(-0.203114 0.0838862 0)
(-0.287877 0.0835962 0)
(-0.37907 0.0806812 0)
(-0.453411 0.0749119 0)
(-0.526367 0.0702823 0)
(-0.562148 0.0661716 0)
(-0.558117 0.0446101 0)
(-0.539796 -0.00681127 0)
(-0.502457 -0.0511432 0)
(-0.436693 -0.0920668 0)
(-0.358259 -0.113784 0)
(-0.263445 -0.123321 0)
(-0.175521 -0.108578 0)
(-0.0951199 -0.086902 0)
(-0.0385577 -0.0466707 0)
(-0.00819191 -0.0194239 0)
(0.00637158 0.00717226 0)
(0.00636933 -0.0112322 0)
(-0.0163499 0.0706238 0)
(-0.0975655 0.124528 0)
(-0.19354 0.161908 0)
(-0.306733 0.177877 0)
(-0.420799 0.175503 0)
(-0.533272 0.167133 0)
(-0.630754 0.149893 0)
(-0.710941 0.124506 0)
(-0.758214 0.0961463 0)
(-0.767629 0.0391409 0)
(-0.743694 -0.0379808 0)
(-0.693333 -0.110684 0)
(-0.60669 -0.176117 0)
(-0.502651 -0.214128 0)
(-0.376565 -0.230664 0)
(-0.25751 -0.207455 0)
(-0.145306 -0.170128 0)
(-0.0644238 -0.100019 0)
(-0.0158743 -0.0504198 0)
(0.0080054 0.00483205 0)
(6.94445e-165 0.00159233 0)
(-0.0248269 0.131847 0)
(-0.141924 0.233504 0)
(-0.262006 0.28483 0)
(-0.4049 0.310004 0)
(-0.543935 0.308236 0)
(-0.682362 0.289269 0)
(-0.799752 0.25144 0)
(-0.89717 0.196976 0)
(-0.95477 0.123583 0)
(-0.972059 0.0305004 0)
(-0.949338 -0.0808428 0)
(-0.891126 -0.187379 0)
(-0.788356 -0.28312 0)
(-0.660932 -0.342823 0)
(-0.502012 -0.369391 0)
(-0.349402 -0.338336 0)
(-0.198533 -0.281147 0)
(-0.0906448 -0.174368 0)
(-0.0184275 -0.0927509 0)
(0.0146171 9.06195e-05 0)
(-5.62846e-266 0.00582722 0)
(-0.0903159 0.217375 0)
(-0.198382 0.359649 0)
(-0.342612 0.426754 0)
(-0.499087 0.459647 0)
(-0.659466 0.45405 0)
(-0.814392 0.423583 0)
(-0.951149 0.36496 0)
(-1.0639 0.280432 0)
(-1.13892 0.170236 0)
(-1.17357 0.0340121 0)
(-1.15923 -0.119965 0)
(-1.10195 -0.271425 0)
(-0.988074 -0.407989 0)
(-0.840387 -0.500041 0)
(-0.6475 -0.54475 0)
(-0.457327 -0.509885 0)
(-0.261202 -0.432105 0)
(-0.120798 -0.278109 0)
(-0.0208403 -0.158947 0)
(0.0161362 0.00237845 0)
(-0.0233089 0.0951589 0)
(-0.125937 0.326596 0)
(-0.250347 0.486159 0)
(-0.408988 0.583642 0)
(-0.584631 0.625983 0)
(-0.763594 0.622011 0)
(-0.938934 0.580076 0)
(-1.09579 0.499968 0)
(-1.22961 0.384484 0)
(-1.32526 0.232993 0)
(-1.38004 0.0512948 0)
(-1.38065 -0.152792 0)
(-1.33118 -0.357533 0)
(-1.21276 -0.545674 0)
(-1.04946 -0.681942 0)
(-0.821729 -0.754419 0)
(-0.591469 -0.722353 0)
(-0.336799 -0.620213 0)
(-0.161159 -0.411432 0)
(-0.00771136 -0.231571 0)
(5.97626e-266 -0.00403406 0)
(-0.0172082 0.157554 0)
(-0.120593 0.445583 0)
(-0.273438 0.643229 0)
(-0.452686 0.761805 0)
(-0.648253 0.814442 0)
(-0.846351 0.808618 0)
(-1.04017 0.756063 0)
(-1.21807 0.65549 0)
(-1.37405 0.51032 0)
(-1.49488 0.320081 0)
(-1.57579 0.089833 0)
(-1.59933 -0.16993 0)
(-1.56728 -0.438793 0)
(-1.45397 -0.692002 0)
(-1.28291 -0.890402 0)
(-1.02498 -1.00702 0)
(-0.752366 -0.99319 0)
(-0.434089 -0.868898 0)
(-0.209073 -0.602537 0)
(-0.00371664 -0.329738 0)
(2.61282e-24 -1.06459e-24 0)
(-0.0152803 0.229258 0)
(-0.124066 0.58092 0)
(-0.293502 0.816568 0)
(-0.487454 0.956529 0)
(-0.699152 1.01825 0)
(-0.912334 1.01224 0)
(-1.12263 0.950812 0)
(-1.31939 0.832636 0)
(-1.49738 0.66101 0)
(-1.64429 0.434063 0)
(-1.75403 0.156328 0)
(-1.80705 -0.161872 0)
(-1.80161 -0.501436 0)
(-1.70557 -0.831408 0)
(-1.53924 -1.10875 0)
(-1.26106 -1.28831 0)
(-0.951028 -1.30958 0)
(-0.564048 -1.16901 0)
(-0.280057 -0.833944 0)
(-0.00501127 -0.44873 0)
(1.06264e-76 -6.53206e-25 0)
(-0.0132395 0.297456 0)
(-0.121251 0.725521 0)
(-0.29965 1.00731 0)
(-0.501773 1.168 0)
(-0.722791 1.23969 0)
(-0.945083 1.232 0)
(-1.16524 1.16332 0)
(-1.37557 1.02978 0)
(-1.57068 0.835376 0)
(-1.74135 0.575999 0)
(-1.87999 0.252932 0)
(-1.96691 -0.123555 0)
(-1.99679 -0.53958 0)
(-1.93184 -0.957048 0)
(-1.7866 -1.33404 0)
(-1.50544 -1.60136 0)
(-1.16892 -1.68869 0)
(-0.715779 -1.55046 0)
(-0.364304 -1.15586 0)
(-0.00721596 -0.625407 0)
(2.95342e-164 -2.65659e-77 0)
(-0.0131834 0.360248 0)
(-0.121619 0.86555 0)
(-0.304547 1.19472 0)
(-0.508891 1.37734 0)
(-0.731031 1.45979 0)
(-0.953479 1.45259 0)
(-1.17323 1.38014 0)
(-1.38691 1.23656 0)
(-1.58875 1.02636 0)
(-1.77489 0.742509 0)
(-1.93618 0.382504 0)
(-2.05678 -0.0454711 0)
(-2.12702 -0.534438 0)
(-2.10747 -1.04255 0)
(-2.00359 -1.5317 0)
(-1.74611 -1.9099 0)
(-1.40763 -2.09424 0)
(-0.907255 -1.98216 0)
(-0.489193 -1.53065 0)
(-0.0812561 -0.826519 0)
(1.78967e-265 0.0133325 0)
(-0.0136189 0.433141 0)
(-0.117676 1.01906 0)
(-0.297268 1.39604 0)
(-0.4943 1.59515 0)
(-0.706062 1.6854 0)
(-0.916367 1.67413 0)
(-1.12174 1.59737 0)
(-1.32435 1.44484 0)
(-1.5177 1.22354 0)
(-1.70518 0.922735 0)
(-1.87685 0.534943 0)
(-2.02378 0.0663199 0)
(-2.13368 -0.488227 0)
(-2.16912 -1.08268 0)
(-2.12615 -1.69413 0)
(-1.92287 -2.20393 0)
(-1.61238 -2.52628 0)
(-1.08472 -2.48347 0)
(-0.587216 -1.97594 0)
(-0.0761332 -1.13458 0)
(0.05333 -0.0769945 0)
(-0.0167829 0.487151 0)
(-0.120269 1.14625 0)
(-0.297822 1.56843 0)
(-0.482892 1.78282 0)
(-0.673002 1.88005 0)
(-0.857446 1.8657 0)
(-1.02979 1.78719 0)
(-1.20232 1.63102 0)
(-1.36522 1.40698 0)
(-1.5338 1.10122 0)
(-1.69517 0.70192 0)
(-1.85416 0.211878 0)
(-1.99353 -0.386341 0)
(-2.08855 -1.04919 0)
(-2.12176 -1.77241 0)
(-2.00676 -2.42536 0)
(-1.77247 -2.92562 0)
(-1.24363 -3.01631 0)
(-0.71582 -2.53282 0)
(0.0431932 -1.47434 0)
(2.46374e-231 -0.0133325 0)
(-0.0212081 0.57317 0)
(-0.121234 1.30315 0)
(-0.28945 1.76257 0)
(-0.452138 1.97147 0)
(-0.606683 2.06317 0)
(-0.749493 2.03135 0)
(-0.870599 1.94432 0)
(-0.993071 1.78047 0)
(-1.1034 1.55591 0)
(-1.22929 1.25283 0)
(-1.35583 0.855374 0)
(-1.50311 0.364828 0)
(-1.653 -0.253773 0)
(-1.79815 -0.954764 0)
(-1.91553 -1.77475 0)
(-1.92487 -2.55731 0)
(-1.82594 -3.2877 0)
(-1.40277 -3.55834 0)
(-0.892621 -3.25618 0)
(-0.00298901 -1.88832 0)
(5.82212e-202 4.58447e-184 0)
(-0.0370783 0.622706 0)
(-0.151301 1.40844 0)
(-0.320368 1.89565 0)
(-0.459311 2.09467 0)
(-0.561101 2.176 0)
(-0.644406 2.12638 0)
(-0.687942 2.03073 0)
(-0.736564 1.8628 0)
(-0.766044 1.64393 0)
(-0.823624 1.35461 0)
(-0.885265 0.977287 0)
(-0.995703 0.511792 0)
(-1.12542 -0.0878704 0)
(-1.30727 -0.782455 0)
(-1.4925 -1.63748 0)
(-1.66052 -2.51146 0)
(-1.73224 -3.43101 0)
(-1.52693 -3.95812 0)
(-1.10783 -3.90894 0)
(-0.0114484 -2.39736 0)
(1.83379e-183 -1.37768e-184 0)
(-0.0556879 0.769762 0)
(-0.185083 1.59077 0)
(-0.344586 2.08017 0)
(-0.446327 2.21368 0)
(-0.478997 2.25559 0)
(-0.485277 2.15905 0)
(-0.43385 2.04092 0)
(-0.389473 1.85955 0)
(-0.318548 1.64499 0)
(-0.28443 1.37363 0)
(-0.255972 1.02762 0)
(-0.296696 0.607553 0)
(-0.372745 0.0562923 0)
(-0.547207 -0.584115 0)
(-0.772802 -1.42451 0)
(-1.07535 -2.31391 0)
(-1.37129 -3.42586 0)
(-1.49374 -4.18935 0)
(-1.39598 -4.78843 0)
(-0.465937 -3.0434 0)
(4.40058e-254 -4.58447e-184 0)
(-0.121528 0.849773 0)
(-0.318752 1.68429 0)
(-0.469983 2.15197 0)
(-0.522838 2.2195 0)
(-0.43734 2.21437 0)
(-0.332512 2.07639 0)
(-0.142679 1.93602 0)
(0.0241385 1.74664 0)
(0.225644 1.54063 0)
(0.372729 1.29464 0)
(0.515542 0.991967 0)
(0.561699 0.634704 0)
(0.570731 0.166463 0)
(0.418805 -0.372939 0)
(0.208368 -1.10132 0)
(-0.251391 -1.90193 0)
(-0.705707 -2.98649 0)
(-1.45073 -3.93224 0)
(-1.64402 -4.84589 0)
(-2.07332 -3.86963 0)
(-2.59198e-264 -0.215999 0)
(-0.178018 1.23177 0)
(-0.416455 1.94363 0)
(-0.502546 2.30673 0)
(-0.455121 2.18125 0)
(-0.215872 2.07909 0)
(0.0327333 1.86392 0)
(0.377361 1.69085 0)
(0.682316 1.49132 0)
(1.02035 1.29861 0)
(1.28861 1.08566 0)
(1.54914 0.838275 0)
(1.69718 0.557487 0)
(1.80371 0.195907 0)
(1.72696 -0.212243 0)
(1.57507 -0.765252 0)
(1.12856 -1.3836 0)
(0.590695 -2.2582 0)
(-0.342731 -3.20714 0)
(-1.07848 -4.25638 0)
(-1.84122 -4.53693 0)
(-0.863997 -2.31694 0)
(-0.400572 1.41008 0)
(-0.725886 1.98016 0)
(-0.519169 2.18489 0)
(-0.237987 1.9158 0)
(0.31933 1.7274 0)
(0.784491 1.47506 0)
(1.34099 1.28837 0)
(1.7992 1.10157 0)
(2.27499 0.936338 0)
(2.64839 0.76889 0)
(3.00507 0.58592 0)
(3.22582 0.388929 0)
(3.40762 0.140184 0)
(3.37762 -0.128705 0)
(3.29563 -0.499462 0)
(2.8651 -0.895788 0)
(2.38975 -1.51632 0)
(1.36532 -2.23377 0)
(0.459309 -3.35309 0)
(-0.706363 -4.00602 0)
(-0.701306 -2.96411 0)
(-0.257398 2.42019 0)
(-0.104676 2.05688 0)
(0.682358 1.86919 0)
(1.32979 1.33449 0)
(2.14709 1.07658 0)
(2.77607 0.835032 0)
(3.43252 0.682072 0)
(3.94803 0.552958 0)
(4.45038 0.449893 0)
(4.8338 0.355337 0)
(5.18874 0.259408 0)
(5.40762 0.160396 0)
(5.58865 0.0408829 0)
(5.5733 -0.0874072 0)
(5.51979 -0.262786 0)
(5.15245 -0.456294 0)
(4.76197 -0.790083 0)
(3.83 -1.24455 0)
(2.86649 -2.25336 0)
(1.09239 -3.33026 0)
(-0.0463067 -3.79885 0)
(1.66709 1.66941 0)
(2.70222 0.974444 0)
(4.54203 0.748243 0)
(5.3808 0.423804 0)
(6.2488 0.286508 0)
(6.76007 0.178214 0)
(7.24113 0.121449 0)
(7.56604 0.081063 0)
(7.86532 0.0545578 0)
(8.06873 0.0339078 0)
(8.25125 0.015482 0)
(8.34064 -0.00182976 0)
(8.41289 -0.0229518 0)
(8.35477 -0.0437309 0)
(8.29327 -0.0789918 0)
(8.00585 -0.111859 0)
(7.7499 -0.200895 0)
(6.99582 -0.293319 0)
(6.26236 -0.62511 0)
(4.04583 -0.997292 0)
(2.00519 -1.81788 0)
)
;

boundaryField
{
    movingWall
    {
        type            fixedValue;
        value           uniform (10 0 0);
    }
    fixedWalls
    {
        type            noSlip;
    }
    frontAndBack
    {
        type            empty;
    }
}


// ************************************************************************* //
