/*--------------------------------*- C++ -*----------------------------------*\
| =========                 |                                                 |
| \\      /  F ield         | OpenFOAM: The Open Source CFD Toolbox           |
|  \\    /   O peration     | Version:  4.1                                   |
|   \\  /    A nd           | Web:      www.OpenFOAM.org                      |
|    \\/     M anipulation  |                                                 |
\*---------------------------------------------------------------------------*/
FoamFile
{
    version     2.0;
    format      ascii;
    class       volVectorField;
    location    "11";
    object      U;
}
// * * * * * * * * * * * * * * * * * * * * * * * * * * * * * * * * * * * * * //

dimensions      [0 1 -1 0 0 0 0];

internalField   nonuniform List<vector> 
400
(
(0.000200744 -0.000197887 0)
(-9.06344e-05 8.45704e-05 0)
(-0.00154411 0.000333206 0)
(-0.00375197 0.000516461 0)
(-0.00647774 0.000605852 0)
(-0.00938127 0.000635883 0)
(-0.0122364 0.000611463 0)
(-0.0147984 0.000536779 0)
(-0.0168383 0.000405644 0)
(-0.018119 0.000216295 0)
(-0.0184331 -2.45564e-05 0)
(-0.0176434 -0.000294517 0)
(-0.0157354 -0.000555568 0)
(-0.012867 -0.000756643 0)
(-0.00937309 -0.000848274 0)
(-0.00576339 -0.000790824 0)
(-0.00258854 -0.000586745 0)
(-0.000404359 -0.000258023 0)
(0.000559162 7.34457e-05 0)
(0.000316908 0.000301993 0)
(-8.92278e-05 8.12766e-05 0)
(-0.00206512 0.00193791 0)
(-0.00649701 0.00366607 0)
(-0.0124767 0.00490277 0)
(-0.0194957 0.00553369 0)
(-0.0268171 0.00565007 0)
(-0.0338807 0.00529072 0)
(-0.0400946 0.00447527 0)
(-0.044911 0.0032027 0)
(-0.0478042 0.0015045 0)
(-0.0483492 -0.000521552 0)
(-0.0462993 -0.00268429 0)
(-0.0416792 -0.00470249 0)
(-0.034866 -0.0062362 0)
(-0.026591 -0.0069624 0)
(-0.0179264 -0.00665619 0)
(-0.0100339 -0.00532149 0)
(-0.00408861 -0.00319154 0)
(-0.000617667 -0.000939127 0)
(0.000178669 0.00059166 0)
(-0.000421164 0.00167386 0)
(-0.00438046 0.00650035 0)
(-0.0118358 0.0105736 0)
(-0.021289 0.0133681 0)
(-0.0320159 0.0147341 0)
(-0.0429975 0.0148123 0)
(-0.0534472 0.0136801 0)
(-0.0625364 0.0113853 0)
(-0.0695083 0.00796532 0)
(-0.0736582 0.00354242 0)
(-0.0744318 -0.00160887 0)
(-0.0715158 -0.00701685 0)
(-0.064944 -0.0120245 0)
(-0.0551961 -0.0158607 0)
(-0.0432095 -0.017793 0)
(-0.0303931 -0.0173124 0)
(-0.0183209 -0.0143962 0)
(-0.00868406 -0.00957028 0)
(-0.002345 -0.00420696 0)
(-1.36894e-05 -5.74815e-06 0)
(-0.000747394 0.00445429 0)
(-0.00665692 0.013476 0)
(-0.0170121 0.0204737 0)
(-0.029663 0.0250351 0)
(-0.0436809 0.0271177 0)
(-0.0578248 0.026955 0)
(-0.0711661 0.0246817 0)
(-0.0827313 0.0203853 0)
(-0.09164 0.01416 0)
(-0.0970735 0.00624218 0)
(-0.0983765 -0.00288832 0)
(-0.0951437 -0.0124451 0)
(-0.087332 -0.021348 0)
(-0.0753866 -0.0283226 0)
(-0.0602898 -0.0321223 0)
(-0.0436548 -0.031827 0)
(-0.0274091 -0.0272718 0)
(-0.0138349 -0.0192233 0)
(-0.00427706 -0.0097738 0)
(-0.000209216 -0.00151607 0)
(-0.00102535 0.00839159 0)
(-0.00869282 0.0228282 0)
(-0.0216911 0.0333092 0)
(-0.0372331 0.039807 0)
(-0.0541963 0.0425557 0)
(-0.0711612 0.0419543 0)
(-0.0871198 0.0382283 0)
(-0.101024 0.0315173 0)
(-0.11193 0.0219756 0)
(-0.118941 0.00994916 0)
(-0.121295 -0.00388876 0)
(-0.11844 -0.0184482 0)
(-0.110145 -0.0322161 0)
(-0.0966722 -0.0433572 0)
(-0.0788879 -0.0499784 0)
(-0.0584948 -0.0505441 0)
(-0.0377601 -0.0445164 0)
(-0.0197131 -0.0327453 0)
(-0.00641133 -0.0180427 0)
(-0.000389796 -0.00403297 0)
(-0.00125979 0.013298 0)
(-0.0104266 0.0342108 0)
(-0.0257041 0.0486581 0)
(-0.0437458 0.0572276 0)
(-0.063265 0.0606006 0)
(-0.0827107 0.0594304 0)
(-0.10105 0.054077 0)
(-0.11722 0.0447413 0)
(-0.130266 0.0316232 0)
(-0.139244 0.0151382 0)
(-0.143281 -0.00390675 0)
(-0.141625 -0.0241844 0)
(-0.133758 -0.0437915 0)
(-0.1196 -0.0603066 0)
(-0.0997114 -0.0710458 0)
(-0.0757084 -0.0735743 0)
(-0.0501207 -0.0665994 0)
(-0.0268675 -0.0507375 0)
(-0.00901731 -0.0294571 0)
(-0.000605787 -0.00767255 0)
(-0.00144029 0.0190136 0)
(-0.0117887 0.0473002 0)
(-0.0288859 0.0661355 0)
(-0.0489356 0.0769114 0)
(-0.0705259 0.0809105 0)
(-0.0920255 0.0791299 0)
(-0.112424 0.0721134 0)
(-0.130702 0.0601311 0)
(-0.145947 0.0434022 0)
(-0.157206 0.022349 0)
(-0.163518 -0.0021828 0)
(-0.163918 -0.0287425 0)
(-0.157536 -0.0551371 0)
(-0.143813 -0.0783919 0)
(-0.122782 -0.0949177 0)
(-0.0956981 -0.10105 0)
(-0.0651247 -0.0941893 0)
(-0.0358935 -0.0741549 0)
(-0.0124167 -0.0448324 0)
(-0.000906446 -0.0127606 0)
(-0.00156161 0.0253183 0)
(-0.0127238 0.0616513 0)
(-0.0310912 0.085199 0)
(-0.052539 0.0982935 0)
(-0.0755688 0.102951 0)
(-0.0985207 0.100598 0)
(-0.120452 0.092016 0)
(-0.140441 0.0775567 0)
(-0.157675 0.0574302 0)
(-0.171264 0.0319938 0)
(-0.180216 0.00201541 0)
(-0.183407 -0.0310861 0)
(-0.179618 -0.0649997 0)
(-0.167736 -0.0963316 0)
(-0.147057 -0.120579 0)
(-0.118101 -0.132555 0)
(-0.0830192 -0.127664 0)
(-0.0473073 -0.104004 0)
(-0.0169721 -0.0652295 0)
(-0.00135871 -0.0197926 0)
(-0.00162094 0.0319854 0)
(-0.0131987 0.0767853 0)
(-0.0322155 0.105243 0)
(-0.0543347 0.120709 0)
(-0.0780022 0.126046 0)
(-0.101579 0.123191 0)
(-0.124228 0.113227 0)
(-0.145184 0.0966045 0)
(-0.163801 0.0735122 0)
(-0.179335 0.0441802 0)
(-0.190875 0.00918513 0)
(-0.197252 -0.0302626 0)
(-0.197009 -0.0719705 0)
(-0.188506 -0.112391 0)
(-0.170178 -0.14629 0)
(-0.141414 -0.166855 0)
(-0.103313 -0.166782 0)
(-0.0613468 -0.141133 0)
(-0.0230452 -0.0919276 0)
(-0.00204453 -0.0294845 0)
(-0.00162729 0.0387651 0)
(-0.0132429 0.092163 0)
(-0.0322649 0.125555 0)
(-0.05424 0.14333 0)
(-0.0775784 0.149297 0)
(-0.100715 0.145981 0)
(-0.122956 0.134836 0)
(-0.143747 0.116449 0)
(-0.16268 0.0909949 0)
(-0.179253 0.0585433 0)
(-0.192769 0.0193942 0)
(-0.202187 -0.0256155 0)
(-0.206009 -0.074683 0)
(-0.20224 -0.124495 0)
(-0.188503 -0.169513 0)
(-0.16279 -0.201547 0)
(-0.124437 -0.210134 0)
(-0.0777263 -0.185728 0)
(-0.0309631 -0.126195 0)
(-0.00307756 -0.0427672 0)
(-0.00161799 0.0454894 0)
(-0.0129939 0.107327 0)
(-0.0314228 0.145446 0)
(-0.0524011 0.165262 0)
(-0.0743158 0.171653 0)
(-0.095746 0.167801 0)
(-0.116182 0.155612 0)
(-0.135342 0.135861 0)
(-0.153112 0.108738 0)
(-0.169326 0.0741583 0)
(-0.183625 0.0321073 0)
(-0.195279 -0.0170667 0)
(-0.203002 -0.0721963 0)
(-0.20474 -0.130647 0)
(-0.197587 -0.187225 0)
(-0.178152 -0.233074 0)
(-0.143522 -0.254726 0)
(-0.0953055 -0.236687 0)
(-0.0409178 -0.168934 0)
(-0.00461564 -0.0607971 0)
(-0.00166282 0.0520305 0)
(-0.0127649 0.121839 0)
(-0.0301612 0.164184 0)
(-0.0493298 0.185486 0)
(-0.0686483 0.19187 0)
(-0.0869618 0.187237 0)
(-0.104005 0.174034 0)
(-0.119837 0.153262 0)
(-0.134692 0.125178 0)
(-0.148794 0.0895746 0)
(-0.162208 0.0461414 0)
(-0.17466 -0.00529701 0)
(-0.185315 -0.0643601 0)
(-0.192419 -0.129476 0)
(-0.193027 -0.196534 0)
(-0.182754 -0.257154 0)
(-0.156479 -0.295889 0)
(-0.111772 -0.290964 0)
(-0.0527635 -0.220064 0)
(-0.00686959 -0.0848867 0)
(-0.00192355 0.0587129 0)
(-0.0131035 0.135764 0)
(-0.0292469 0.181392 0)
(-0.0458693 0.203141 0)
(-0.0613654 0.208724 0)
(-0.0750595 0.202806 0)
(-0.0870135 0.188443 0)
(-0.0977236 0.166883 0)
(-0.107793 0.138481 0)
(-0.117864 0.102952 0)
(-0.128449 0.0597437 0)
(-0.139793 0.00820965 0)
(-0.151681 -0.0520658 0)
(-0.162978 -0.120778 0)
(-0.171295 -0.195509 0)
(-0.171968 -0.26969 0)
(-0.158421 -0.327811 0)
(-0.123468 -0.343228 0)
(-0.0656492 -0.277778 0)
(-0.0100868 -0.116377 0)
(-0.00265096 0.0658058 0)
(-0.0149989 0.148998 0)
(-0.0299929 0.19643 0)
(-0.0433976 0.217048 0)
(-0.0536914 0.220686 0)
(-0.0610888 0.212773 0)
(-0.066105 0.197004 0)
(-0.0698001 0.174828 0)
(-0.0731578 0.146696 0)
(-0.0772246 0.112269 0)
(-0.082927 0.0708337 0)
(-0.0910078 0.0213868 0)
(-0.10193 -0.0371427 0)
(-0.115375 -0.105662 0)
(-0.130048 -0.18373 0)
(-0.14186 -0.267728 0)
(-0.144214 -0.344522 0)
(-0.125456 -0.386047 0)
(-0.0775119 -0.337655 0)
(-0.0144716 -0.156144 0)
(-0.0043934 0.075587 0)
(-0.0197439 0.163251 0)
(-0.0336757 0.20983 0)
(-0.0429454 0.22656 0)
(-0.0462471 0.226401 0)
(-0.0453368 0.215407 0)
(-0.0413196 0.197818 0)
(-0.0359702 0.17512 0)
(-0.0306355 0.147779 0)
(-0.0267287 0.115389 0)
(-0.0255136 0.0771255 0)
(-0.0281534 0.0317778 0)
(-0.0357423 -0.0221453 0)
(-0.0488071 -0.0864633 0)
(-0.0675016 -0.162549 0)
(-0.0890396 -0.250289 0)
(-0.10864 -0.34123 0)
(-0.111561 -0.410932 0)
(-0.0843642 -0.39232 0)
(-0.0199766 -0.20418 0)
(-0.00800626 0.0882887 0)
(-0.0299455 0.177623 0)
(-0.042267 0.21957 0)
(-0.0453639 0.22899 0)
(-0.0384517 0.223026 0)
(-0.0261182 0.208024 0)
(-0.0101787 0.188447 0)
(0.00672289 0.16556 0)
(0.0229589 0.139683 0)
(0.0368371 0.110307 0)
(0.0468748 0.0765394 0)
(0.0516146 0.0371105 0)
(0.0494627 -0.00961991 0)
(0.039171 -0.0659154 0)
(0.0190889 -0.1344 0)
(-0.00968749 -0.218135 0)
(-0.0459461 -0.314762 0)
(-0.0741489 -0.408929 0)
(-0.0795557 -0.430473 0)
(-0.0257305 -0.257264 0)
(-0.0146211 0.114334 0)
(-0.0452212 0.197705 0)
(-0.0516069 0.226875 0)
(-0.0432388 0.22254 0)
(-0.0206165 0.207598 0)
(0.00748542 0.187466 0)
(0.0387392 0.165924 0)
(0.0697045 0.143492 0)
(0.0986954 0.120042 0)
(0.123931 0.0948665 0)
(0.143895 0.067008 0)
(0.157016 0.0352521 0)
(0.161418 -0.00196935 0)
(0.155358 -0.0468844 0)
(0.135969 -0.102627 0)
(0.102653 -0.174227 0)
(0.0519806 -0.265293 0)
(-0.00253756 -0.37356 0)
(-0.0517007 -0.439159 0)
(-0.0284964 -0.309971 0)
(-0.0256202 0.141876 0)
(-0.0655942 0.209195 0)
(-0.0479715 0.216794 0)
(-0.0145462 0.195583 0)
(0.0341859 0.171914 0)
(0.0840852 0.148511 0)
(0.133807 0.12711 0)
(0.179984 0.107219 0)
(0.221561 0.0880933 0)
(0.257194 0.0688561 0)
(0.285721 0.048555 0)
(0.305773 0.0261659 0)
(0.315541 0.000402194 0)
(0.313055 -0.0304726 0)
(0.294815 -0.0692881 0)
(0.25875 -0.121068 0)
(0.197085 -0.193237 0)
(0.118764 -0.296432 0)
(0.0178134 -0.395475 0)
(-0.0171693 -0.338988 0)
(-0.0187485 0.214579 0)
(-0.0197963 0.215331 0)
(0.0566375 0.181581 0)
(0.128703 0.140391 0)
(0.2056 0.110527 0)
(0.273813 0.0882697 0)
(0.335415 0.0710154 0)
(0.388994 0.057062 0)
(0.434898 0.0449957 0)
(0.472868 0.0338586 0)
(0.502515 0.0228336 0)
(0.523054 0.0112158 0)
(0.533189 -0.00182601 0)
(0.531174 -0.0172768 0)
(0.513852 -0.0371391 0)
(0.478249 -0.0648308 0)
(0.414653 -0.108587 0)
(0.32398 -0.186721 0)
(0.173196 -0.296557 0)
(0.0429811 -0.33504 0)
(0.211329 0.129535 0)
(0.297271 0.100932 0)
(0.45117 0.0674643 0)
(0.543292 0.0443169 0)
(0.618078 0.0290886 0)
(0.673992 0.019852 0)
(0.717935 0.0138487 0)
(0.75254 0.0098025 0)
(0.779781 0.00682527 0)
(0.800658 0.00442389 0)
(0.815608 0.00226885 0)
(0.824583 0.000140861 0)
(0.827091 -0.00218234 0)
(0.822136 -0.00488958 0)
(0.807846 -0.00852749 0)
(0.781245 -0.0136938 0)
(0.734303 -0.0229 0)
(0.658599 -0.0407268 0)
(0.498164 -0.0743666 0)
(0.288347 -0.136214 0)
)
;

boundaryField
{
    movingWall
    {
        type            fixedValue;
        value           uniform (1 0 0);
    }
    fixedWalls
    {
        type            noSlip;
    }
    frontAndBack
    {
        type            empty;
    }
}


// ************************************************************************* //
