/*--------------------------------*- C++ -*----------------------------------*\
| =========                 |                                                 |
| \\      /  F ield         | OpenFOAM: The Open Source CFD Toolbox           |
|  \\    /   O peration     | Version:  4.1                                   |
|   \\  /    A nd           | Web:      www.OpenFOAM.org                      |
|    \\/     M anipulation  |                                                 |
\*---------------------------------------------------------------------------*/
FoamFile
{
    version     2.0;
    format      ascii;
    class       volVectorField;
    location    "0.0061";
    object      U;
}
// * * * * * * * * * * * * * * * * * * * * * * * * * * * * * * * * * * * * * //

dimensions      [0 1 -1 0 0 0 0];

internalField   nonuniform List<vector> 
441
(
(0.00335668 -0.00579838 0)
(0.00576391 -0.00447155 0)
(-0.00111895 -3.33166e-165 0)
(0.0013634 -1.60157e-266 0)
(-0.0147892 -0.00545543 0)
(-0.0013634 -2.54826e-232 0)
(-1.29498e-202 -2.84309e-203 0)
(-7.10416e-204 -3.36757e-228 0)
(-1.36979e-212 -1.42154e-213 0)
(-0.00497758 7.70785e-266 0)
(-0.0562896 0.0199024 0)
(-0.0732007 0.0111892 0)
(-0.0857004 0.0056151 0)
(-0.0826324 0.00167683 0)
(-0.0777951 -0.00011761 0)
(-0.0658562 -0.00142649 0)
(-0.0541446 -0.00182115 0)
(-0.0385985 -0.00246598 0)
(-0.0238336 -0.00207643 0)
(-0.00960231 -0.00184581 0)
(0.00132568 0.000513604 0)
(0.00174539 -0.00301247 0)
(-0.012206 0.00920825 0)
(-0.0412384 0.00670249 0)
(-0.0663672 0.0144522 0)
(-0.0988279 0.00742226 0)
(-0.121914 -0.00984982 0)
(-0.141092 -0.00137252 0)
(-0.158094 0.000734224 0)
(-0.17165 0.00935908 0)
(-0.188333 0.0496438 0)
(-0.200052 0.046598 0)
(-0.19619 0.0186218 0)
(-0.193462 0.00334441 0)
(-0.178283 -0.0098205 0)
(-0.1619 -0.0167238 0)
(-0.136442 -0.022825 0)
(-0.111039 -0.0252993 0)
(-0.0797811 -0.0286919 0)
(-0.0500299 -0.0266992 0)
(-0.0213565 -0.0241666 0)
(0.000447046 -0.00860454 0)
(0.00524545 0.00351866 0)
(-0.0117044 0.0378923 0)
(-0.0573836 0.052064 0)
(-0.100788 0.056041 0)
(-0.142699 0.0490667 0)
(-0.184829 0.0389867 0)
(-0.225239 0.034534 0)
(-0.250321 0.0294824 0)
(-0.277257 0.0287529 0)
(-0.282904 0.0325641 0)
(-0.268838 0.0285154 0)
(-0.257759 0.00587723 0)
(-0.245192 -0.0118706 0)
(-0.224357 -0.0294769 0)
(-0.201449 -0.041356 0)
(-0.168915 -0.052235 0)
(-0.136465 -0.057645 0)
(-0.0965744 -0.0636093 0)
(-0.0597647 -0.0595359 0)
(-0.0240663 -0.0524769 0)
(0.00173096 -0.0195469 0)
(0.00769588 0.0035446 0)
(-0.00703409 0.07357 0)
(-0.0669564 0.0963104 0)
(-0.119588 0.101451 0)
(-0.171705 0.091761 0)
(-0.218272 0.0750591 0)
(-0.258712 0.0648853 0)
(-0.289019 0.0532295 0)
(-0.31112 0.0431761 0)
(-0.319563 0.0388738 0)
(-0.312784 0.0209606 0)
(-0.298893 -0.00584139 0)
(-0.282007 -0.030393 0)
(-0.255632 -0.0542221 0)
(-0.227201 -0.0721974 0)
(-0.188212 -0.0886792 0)
(-0.149965 -0.0973909 0)
(-0.102629 -0.106562 0)
(-0.0608682 -0.0987637 0)
(-0.0199134 -0.0869308 0)
(0.00486897 -0.0306895 0)
(6.67243e-165 0.00192397 0)
(-0.00966164 0.112112 0)
(-0.0834344 0.163806 0)
(-0.138356 0.159746 0)
(-0.196615 0.147034 0)
(-0.245883 0.124755 0)
(-0.290652 0.104558 0)
(-0.322719 0.0814553 0)
(-0.346725 0.0589319 0)
(-0.354886 0.0351363 0)
(-0.348975 0.008139 0)
(-0.335107 -0.0243476 0)
(-0.3152 -0.0546643 0)
(-0.285147 -0.084104 0)
(-0.252092 -0.108053 0)
(-0.206558 -0.129602 0)
(-0.162941 -0.14217 0)
(-0.106089 -0.1531 0)
(-0.0597148 -0.140906 0)
(-0.0100531 -0.118628 0)
(0.0120764 -0.0334381 0)
(-6.67127e-266 0.00576649 0)
(-0.0707639 0.161642 0)
(-0.112779 0.223357 0)
(-0.172462 0.216419 0)
(-0.223533 0.199353 0)
(-0.274486 0.170241 0)
(-0.317412 0.142177 0)
(-0.352065 0.109603 0)
(-0.375967 0.0757547 0)
(-0.387492 0.040498 0)
(-0.386071 0.00107688 0)
(-0.373308 -0.040272 0)
(-0.352411 -0.0805015 0)
(-0.318848 -0.118186 0)
(-0.281083 -0.150714 0)
(-0.228463 -0.179156 0)
(-0.177973 -0.197335 0)
(-0.110111 -0.211857 0)
(-0.056421 -0.193649 0)
(0.0083164 -0.161487 0)
(0.0187921 -0.0283175 0)
(-0.023066 0.0776844 0)
(-0.0925322 0.220599 0)
(-0.140606 0.266778 0)
(-0.19904 0.268863 0)
(-0.254007 0.24891 0)
(-0.307081 0.217694 0)
(-0.353538 0.181817 0)
(-0.390946 0.139602 0)
(-0.417613 0.0942575 0)
(-0.431544 0.0453451 0)
(-0.432263 -0.00581938 0)
(-0.420357 -0.0578454 0)
(-0.398152 -0.108606 0)
(-0.361359 -0.155424 0)
(-0.319181 -0.197492 0)
(-0.258816 -0.233031 0)
(-0.202801 -0.258948 0)
(-0.121512 -0.275471 0)
(-0.0671719 -0.257047 0)
(0.0215174 -0.194999 0)
(5.63566e-266 -0.00469804 0)
(-0.0169931 0.12385 0)
(-0.0801517 0.280199 0)
(-0.147427 0.330894 0)
(-0.216001 0.330835 0)
(-0.279157 0.308125 0)
(-0.33854 0.270468 0)
(-0.388996 0.226607 0)
(-0.430948 0.173931 0)
(-0.460475 0.116659 0)
(-0.478159 0.0549276 0)
(-0.481657 -0.0101409 0)
(-0.471417 -0.074943 0)
(-0.448737 -0.139662 0)
(-0.409693 -0.198203 0)
(-0.363158 -0.253221 0)
(-0.29671 -0.297459 0)
(-0.233659 -0.333751 0)
(-0.145671 -0.351162 0)
(-0.0839379 -0.333241 0)
(0.00212879 -0.23658 0)
(1.22067e-24 -2.95143e-24 0)
(-0.0141224 0.172184 0)
(-0.0804543 0.349046 0)
(-0.161234 0.401906 0)
(-0.239326 0.399127 0)
(-0.312554 0.370931 0)
(-0.378771 0.326563 0)
(-0.435021 0.273903 0)
(-0.481695 0.210581 0)
(-0.514775 0.141399 0)
(-0.536071 0.0664349 0)
(-0.541894 -0.0123469 0)
(-0.533827 -0.0906602 0)
(-0.511024 -0.169752 0)
(-0.470728 -0.240943 0)
(-0.420184 -0.309275 0)
(-0.347236 -0.36286 0)
(-0.276326 -0.407685 0)
(-0.176586 -0.426472 0)
(-0.105593 -0.400803 0)
(-0.0019312 -0.281997 0)
(4.75427e-77 -3.05167e-25 0)
(-0.0125717 0.219654 0)
(-0.0809297 0.429028 0)
(-0.173504 0.491282 0)
(-0.26137 0.483276 0)
(-0.344358 0.448816 0)
(-0.418119 0.393631 0)
(-0.479767 0.330394 0)
(-0.531487 0.254002 0)
(-0.567792 0.171422 0)
(-0.593208 0.0819809 0)
(-0.601779 -0.0124984 0)
(-0.59712 -0.106311 0)
(-0.575551 -0.203249 0)
(-0.535777 -0.290198 0)
(-0.482246 -0.377267 0)
(-0.403447 -0.443589 0)
(-0.323433 -0.50439 0)
(-0.210579 -0.526107 0)
(-0.128161 -0.506174 0)
(-0.00856194 -0.349841 0)
(1.20592e-164 -1.18857e-77 0)
(-0.0134201 0.262963 0)
(-0.0899521 0.50819 0)
(-0.196954 0.580831 0)
(-0.296441 0.568205 0)
(-0.38965 0.526793 0)
(-0.47088 0.46068 0)
(-0.537006 0.386838 0)
(-0.592843 0.297934 0)
(-0.631147 0.203015 0)
(-0.660379 0.100335 0)
(-0.671456 -0.00825147 0)
(-0.67192 -0.116547 0)
(-0.653191 -0.230507 0)
(-0.61761 -0.333753 0)
(-0.563065 -0.440225 0)
(-0.481678 -0.521512 0)
(-0.391351 -0.597519 0)
(-0.26823 -0.622821 0)
(-0.168824 -0.596098 0)
(-0.0630115 -0.414599 0)
(2.5366e-267 0.00406645 0)
(-0.0156124 0.324664 0)
(-0.100365 0.614987 0)
(-0.221371 0.700195 0)
(-0.33181 0.677447 0)
(-0.433696 0.625394 0)
(-0.521085 0.54187 0)
(-0.589615 0.453805 0)
(-0.648047 0.348607 0)
(-0.686699 0.239533 0)
(-0.719102 0.122387 0)
(-0.732674 -0.00130087 0)
(-0.739624 -0.124925 0)
(-0.72624 -0.258767 0)
(-0.698301 -0.381404 0)
(-0.646596 -0.515053 0)
(-0.563838 -0.61768 0)
(-0.461986 -0.71978 0)
(-0.311943 -0.75296 0)
(-0.182518 -0.712908 0)
(-0.024981 -0.523928 0)
(0.0162658 -0.0704616 0)
(-0.0208184 0.374875 0)
(-0.121631 0.710948 0)
(-0.264821 0.809828 0)
(-0.390422 0.777559 0)
(-0.500483 0.714763 0)
(-0.592579 0.614512 0)
(-0.659029 0.513251 0)
(-0.716813 0.394024 0)
(-0.75167 0.273924 0)
(-0.785639 0.14635 0)
(-0.800264 0.0123845 0)
(-0.816066 -0.122058 0)
(-0.810446 -0.271332 0)
(-0.797664 -0.41186 0)
(-0.754277 -0.573339 0)
(-0.679133 -0.704598 0)
(-0.568308 -0.84645 0)
(-0.382851 -0.901799 0)
(-0.218382 -0.878254 0)
(0.0537221 -0.613463 0)
(1.12118e-231 -0.00406645 0)
(-0.0277041 0.470591 0)
(-0.144725 0.862573 0)
(-0.308823 0.973719 0)
(-0.447705 0.915041 0)
(-0.562522 0.83154 0)
(-0.655957 0.701512 0)
(-0.716418 0.580576 0)
(-0.770206 0.441879 0)
(-0.79823 0.309263 0)
(-0.831469 0.171317 0)
(-0.845949 0.0283759 0)
(-0.870625 -0.114714 0)
(-0.875631 -0.279631 0)
(-0.88362 -0.438157 0)
(-0.859516 -0.637733 0)
(-0.808611 -0.805835 0)
(-0.707198 -1.02099 0)
(-0.519243 -1.10929 0)
(-0.315136 -1.14958 0)
(0.000877683 -0.759248 0)
(1.76322e-202 1.68355e-184 0)
(-0.0453901 0.540034 0)
(-0.196468 0.98582 0)
(-0.395232 1.10883 0)
(-0.552886 1.02568 0)
(-0.665021 0.921279 0)
(-0.753875 0.76484 0)
(-0.796678 0.626947 0)
(-0.839495 0.474309 0)
(-0.852474 0.335055 0)
(-0.881476 0.19435 0)
(-0.892005 0.0515367 0)
(-0.927585 -0.0904137 0)
(-0.944129 -0.258044 0)
(-0.985132 -0.424469 0)
(-0.988117 -0.646905 0)
(-0.991102 -0.852679 0)
(-0.910886 -1.13129 0)
(-0.750586 -1.29187 0)
(-0.486128 -1.38793 0)
(0.000296359 -0.933374 0)
(6.7342e-184 -3.32911e-184 0)
(-0.0652106 0.720646 0)
(-0.249848 1.21744 0)
(-0.474675 1.34019 0)
(-0.643581 1.18694 0)
(-0.745048 1.04014 0)
(-0.822735 0.834212 0)
(-0.843334 0.670536 0)
(-0.871059 0.498311 0)
(-0.866306 0.352607 0)
(-0.887241 0.211457 0)
(-0.890782 0.0730899 0)
(-0.931792 -0.0617961 0)
(-0.957896 -0.226605 0)
(-1.02744 -0.39316 0)
(-1.06817 -0.640503 0)
(-1.1353 -0.882289 0)
(-1.12791 -1.2763 0)
(-1.04802 -1.5366 0)
(-0.821389 -1.92192 0)
(-0.278531 -1.26306 0)
(1.57855e-254 -1.68355e-184 0)
(-0.129663 0.840147 0)
(-0.393571 1.38165 0)
(-0.64481 1.49625 0)
(-0.817773 1.28561 0)
(-0.869028 1.09861 0)
(-0.913591 0.857234 0)
(-0.883333 0.675044 0)
(-0.881645 0.494992 0)
(-0.844959 0.351216 0)
(-0.851585 0.21944 0)
(-0.84109 0.0958325 0)
(-0.887065 -0.0198321 0)
(-0.91743 -0.162735 0)
(-1.02626 -0.307476 0)
(-1.10148 -0.538142 0)
(-1.2865 -0.783056 0)
(-1.3597 -1.21096 0)
(-1.56339 -1.59079 0)
(-1.35486 -2.12264 0)
(-1.34986 -1.77766 0)
(-1.79484e-264 -0.150161 0)
(-0.18228 1.26472 0)
(-0.49149 1.7373 0)
(-0.709042 1.78664 0)
(-0.83781 1.4119 0)
(-0.810709 1.14989 0)
(-0.799198 0.848428 0)
(-0.710898 0.645223 0)
(-0.671266 0.459931 0)
(-0.600035 0.324255 0)
(-0.585007 0.208278 0)
(-0.553645 0.106322 0)
(-0.588483 0.0164377 0)
(-0.606915 -0.0944929 0)
(-0.718254 -0.205185 0)
(-0.80339 -0.395708 0)
(-1.02938 -0.615521 0)
(-1.18909 -1.03258 0)
(-1.51206 -1.5175 0)
(-1.55411 -2.21719 0)
(-1.56051 -2.53634 0)
(-0.600645 -1.51611 0)
(-0.395471 1.4778 0)
(-0.772231 1.87851 0)
(-0.714358 1.83459 0)
(-0.656576 1.36948 0)
(-0.383234 1.05969 0)
(-0.2367 0.748827 0)
(-0.0232798 0.548042 0)
(0.08516 0.381126 0)
(0.213953 0.265332 0)
(0.261329 0.174063 0)
(0.322696 0.0986543 0)
(0.303386 0.0385611 0)
(0.307963 -0.0347696 0)
(0.199687 -0.100194 0)
(0.137035 -0.229749 0)
(-0.119722 -0.377704 0)
(-0.284005 -0.72998 0)
(-0.757898 -1.19115 0)
(-0.944747 -2.06894 0)
(-1.23536 -2.67458 0)
(-0.645466 -2.30796 0)
(-0.239471 2.49229 0)
(-0.0852761 2.05027 0)
(0.580371 1.72194 0)
(1.00636 1.07542 0)
(1.52591 0.75276 0)
(1.8211 0.484984 0)
(2.12394 0.332164 0)
(2.28792 0.22121 0)
(2.45161 0.150132 0)
(2.52498 0.100067 0)
(2.60938 0.0617195 0)
(2.61501 0.0341775 0)
(2.65223 0.00120252 0)
(2.58538 -0.0274076 0)
(2.58167 -0.0937307 0)
(2.391 -0.180476 0)
(2.2975 -0.429303 0)
(1.81265 -0.828128 0)
(1.42698 -1.80142 0)
(0.390612 -2.80789 0)
(-0.0914003 -3.48571 0)
(1.69379 1.70049 0)
(2.77559 0.994503 0)
(4.58246 0.744869 0)
(5.31106 0.401962 0)
(6.01677 0.25428 0)
(6.34206 0.142769 0)
(6.6305 0.0875272 0)
(6.7697 0.0514196 0)
(6.89796 0.0310523 0)
(6.95263 0.0179536 0)
(7.01514 0.00858349 0)
(7.0212 0.00153064 0)
(7.05373 -0.00759643 0)
(7.00939 -0.016623 0)
(7.01791 -0.0394149 0)
(6.86506 -0.0651079 0)
(6.79172 -0.151882 0)
(6.26259 -0.256941 0)
(5.75441 -0.619676 0)
(3.77821 -1.02359 0)
(1.99909 -1.87043 0)
)
;

boundaryField
{
    movingWall
    {
        type            fixedValue;
        value           uniform (10 0 0);
    }
    fixedWalls
    {
        type            noSlip;
    }
    frontAndBack
    {
        type            empty;
    }
}


// ************************************************************************* //
