/*--------------------------------*- C++ -*----------------------------------*\
| =========                 |                                                 |
| \\      /  F ield         | OpenFOAM: The Open Source CFD Toolbox           |
|  \\    /   O peration     | Version:  4.1                                   |
|   \\  /    A nd           | Web:      www.OpenFOAM.org                      |
|    \\/     M anipulation  |                                                 |
\*---------------------------------------------------------------------------*/
FoamFile
{
    version     2.0;
    format      ascii;
    class       volVectorField;
    location    "0.0292";
    object      U;
}
// * * * * * * * * * * * * * * * * * * * * * * * * * * * * * * * * * * * * * //

dimensions      [0 1 -1 0 0 0 0];

internalField   nonuniform List<vector> 
441
(
(0.00327943 -0.00462646 0)
(0.00806052 -0.00273543 0)
(-0.000683944 -2.25906e-165 0)
(0.00157581 -2.46801e-266 0)
(-0.0096522 -0.0063038 0)
(-0.00157581 -2.5592e-232 0)
(-1.08388e-202 -3.91943e-203 0)
(-9.79671e-204 -4.85715e-228 0)
(-1.35605e-212 -2.01003e-213 0)
(-0.00477803 7.27312e-266 0)
(-0.0565916 0.0191139 0)
(-0.0720795 0.010361 0)
(-0.0828422 0.00508825 0)
(-0.0758936 0.00102878 0)
(-0.0665687 -0.00057004 0)
(-0.0496182 -0.00185135 0)
(-0.0340156 -0.00160994 0)
(-0.0177583 -0.00168223 0)
(-0.00556654 -0.000180276 0)
(9.71827e-05 0.00043167 0)
(0.00340381 0.00216573 0)
(0.0029521 -0.0065006 0)
(-0.00344618 0.00670305 0)
(-0.0283823 0.00758808 0)
(-0.0561758 0.0110343 0)
(-0.0953324 0.00873118 0)
(-0.129029 -0.00509969 0)
(-0.158796 -0.000645565 0)
(-0.185625 0.00106092 0)
(-0.208233 0.00974825 0)
(-0.231296 0.050059 0)
(-0.247145 0.0465576 0)
(-0.242523 0.0161611 0)
(-0.234403 -0.00166362 0)
(-0.208072 -0.0178693 0)
(-0.177558 -0.0257299 0)
(-0.136122 -0.0316977 0)
(-0.0966017 -0.0300416 0)
(-0.0570734 -0.0278511 0)
(-0.0262036 -0.0172782 0)
(-0.00758322 -0.0101332 0)
(0.00327714 0.00153326 0)
(0.00609729 -0.00473508 0)
(-0.00660358 0.0282057 0)
(-0.050637 0.0513123 0)
(-0.105858 0.064961 0)
(-0.169193 0.0655669 0)
(-0.232453 0.0600444 0)
(-0.296456 0.0545341 0)
(-0.3436 0.0477668 0)
(-0.389036 0.0438495 0)
(-0.407234 0.0426283 0)
(-0.399211 0.0311282 0)
(-0.38478 -0.00137761 0)
(-0.361131 -0.0287887 0)
(-0.320014 -0.0556541 0)
(-0.271814 -0.0716975 0)
(-0.21037 -0.0830182 0)
(-0.151082 -0.0796265 0)
(-0.0913852 -0.0724743 0)
(-0.0445999 -0.0486593 0)
(-0.0135403 -0.0293839 0)
(0.00440864 -0.00162494 0)
(0.0059357 -0.00616292 0)
(-0.0125152 0.0649881 0)
(-0.0800989 0.106972 0)
(-0.155485 0.131552 0)
(-0.240405 0.13562 0)
(-0.321784 0.124523 0)
(-0.397661 0.111681 0)
(-0.458937 0.0942852 0)
(-0.506479 0.0750496 0)
(-0.530826 0.0579713 0)
(-0.53086 0.0238366 0)
(-0.511179 -0.0228724 0)
(-0.478154 -0.0665518 0)
(-0.423282 -0.108129 0)
(-0.359287 -0.135183 0)
(-0.278802 -0.153653 0)
(-0.200996 -0.148521 0)
(-0.12165 -0.135758 0)
(-0.0599149 -0.094397 0)
(-0.0169398 -0.0604115 0)
(0.006344 -0.00726193 0)
(6.02875e-165 0.00148392 0)
(-0.017669 0.113844 0)
(-0.110319 0.193555 0)
(-0.200238 0.22409 0)
(-0.303786 0.231002 0)
(-0.399636 0.215846 0)
(-0.490718 0.190754 0)
(-0.562693 0.155823 0)
(-0.619239 0.115283 0)
(-0.64782 0.0676265 0)
(-0.650971 0.0118693 0)
(-0.630508 -0.0538334 0)
(-0.591352 -0.116002 0)
(-0.525934 -0.174721 0)
(-0.448004 -0.215172 0)
(-0.34812 -0.24191 0)
(-0.251624 -0.235416 0)
(-0.149284 -0.214393 0)
(-0.0726005 -0.151823 0)
(-0.0147242 -0.0963246 0)
(0.0126642 -0.0113332 0)
(-4.99645e-266 0.00485932 0)
(-0.0719204 0.179501 0)
(-0.150097 0.287894 0)
(-0.254561 0.326683 0)
(-0.363069 0.334992 0)
(-0.470518 0.312483 0)
(-0.569384 0.275281 0)
(-0.651951 0.223066 0)
(-0.715987 0.160833 0)
(-0.753978 0.0890287 0)
(-0.766706 0.00671307 0)
(-0.749927 -0.0833589 0)
(-0.710137 -0.170933 0)
(-0.636987 -0.252761 0)
(-0.546802 -0.312543 0)
(-0.426807 -0.351974 0)
(-0.30925 -0.346382 0)
(-0.180409 -0.317413 0)
(-0.0856229 -0.227285 0)
(-0.00936082 -0.148583 0)
(0.0158142 -0.00839203 0)
(-0.0194373 0.0765948 0)
(-0.0981703 0.260664 0)
(-0.186835 0.376707 0)
(-0.298932 0.435526 0)
(-0.41903 0.446442 0)
(-0.537198 0.421056 0)
(-0.648173 0.371685 0)
(-0.742421 0.301785 0)
(-0.818625 0.217231 0)
(-0.868282 0.118203 0)
(-0.892255 0.00826431 0)
(-0.883289 -0.110601 0)
(-0.846877 -0.228053 0)
(-0.76945 -0.338655 0)
(-0.66909 -0.423943 0)
(-0.527066 -0.480685 0)
(-0.386529 -0.479671 0)
(-0.221789 -0.439788 0)
(-0.109466 -0.320013 0)
(0.00295343 -0.199285 0)
(5.43055e-266 -0.00395355 0)
(-0.0138546 0.124744 0)
(-0.0910519 0.347958 0)
(-0.201906 0.489359 0)
(-0.329309 0.559734 0)
(-0.463984 0.573718 0)
(-0.595767 0.542108 0)
(-0.719451 0.480981 0)
(-0.82809 0.393587 0)
(-0.918871 0.287139 0)
(-0.98494 0.162245 0)
(-1.02541 0.0220368 0)
(-1.03033 -0.129646 0)
(-1.00368 -0.28441 0)
(-0.927481 -0.43231 0)
(-0.820024 -0.554257 0)
(-0.656574 -0.637692 0)
(-0.48804 -0.650026 0)
(-0.283559 -0.599585 0)
(-0.14099 -0.44787 0)
(-0.00135584 -0.266522 0)
(1.93882e-24 -1.57405e-24 0)
(-0.0119482 0.178519 0)
(-0.0939271 0.447027 0)
(-0.220079 0.613743 0)
(-0.361162 0.696093 0)
(-0.51092 0.712006 0)
(-0.656544 0.675337 0)
(-0.794821 0.603488 0)
(-0.91943 0.500432 0)
(-1.0278 0.374054 0)
(-1.11384 0.22433 0)
(-1.17521 0.0541989 0)
(-1.20051 -0.132701 0)
(-1.1907 -0.329694 0)
(-1.12313 -0.523171 0)
(-1.01412 -0.692821 0)
(-0.830422 -0.814712 0)
(-0.630849 -0.849229 0)
(-0.374735 -0.790475 0)
(-0.191128 -0.595895 0)
(-0.00348336 -0.346075 0)
(7.96166e-77 -4.84705e-25 0)
(-0.0105094 0.231433 0)
(-0.0947326 0.557748 0)
(-0.233491 0.757594 0)
(-0.386939 0.851378 0)
(-0.550516 0.869876 0)
(-0.709736 0.826308 0)
(-0.862067 0.744442 0)
(-1.00346 0.626485 0)
(-1.13067 0.481917 0)
(-1.23993 0.309189 0)
(-1.32684 0.108955 0)
(-1.37952 -0.115188 0)
(-1.39511 -0.361474 0)
(-1.34597 -0.6111 0)
(-1.24384 -0.846387 0)
(-1.04527 -1.02553 0)
(-0.812476 -1.10422 0)
(-0.495412 -1.04719 0)
(-0.255409 -0.814504 0)
(-0.00495399 -0.469837 0)
(2.21823e-164 -1.99042e-77 0)
(-0.0112658 0.280762 0)
(-0.10226 0.668366 0)
(-0.25485 0.904013 0)
(-0.420864 1.01117 0)
(-0.596894 1.0335 0)
(-0.768047 0.985266 0)
(-0.932031 0.896496 0)
(-1.08837 0.767949 0)
(-1.23272 0.610363 0)
(-1.36546 0.419915 0)
(-1.47941 0.194327 0)
(-1.56498 -0.0647436 0)
(-1.61363 -0.36172 0)
(-1.59509 -0.675175 0)
(-1.51238 -0.990742 0)
(-1.31135 -1.24867 0)
(-1.05149 -1.39446 0)
(-0.671084 -1.35319 0)
(-0.362408 -1.07641 0)
(-0.0617573 -0.611267 0)
(1.39639e-265 0.0107235 0)
(-0.0130248 0.34609 0)
(-0.109788 0.803538 0)
(-0.274035 1.07793 0)
(-0.449506 1.19435 0)
(-0.633709 1.2185 0)
(-0.812385 1.16168 0)
(-0.982743 1.06566 0)
(-1.149 0.926964 0)
(-1.30517 0.759289 0)
(-1.45719 0.55528 0)
(-1.59536 0.308341 0)
(-1.71425 0.0179201 0)
(-1.80054 -0.331526 0)
(-1.82294 -0.714683 0)
(-1.77493 -1.13005 0)
(-1.58992 -1.4921 0)
(-1.3158 -1.74401 0)
(-0.870307 -1.74764 0)
(-0.464916 -1.4193 0)
(-0.0616789 -0.848244 0)
(0.0428941 -0.0590357 0)
(-0.017845 0.399343 0)
(-0.127055 0.926481 0)
(-0.308871 1.24094 0)
(-0.494678 1.36765 0)
(-0.682272 1.39467 0)
(-0.861954 1.33183 0)
(-1.02796 1.23221 0)
(-1.19348 1.08887 0)
(-1.34825 0.918213 0)
(-1.50798 0.709461 0)
(-1.6581 0.451704 0)
(-1.80363 0.140483 0)
(-1.92368 -0.251351 0)
(-1.99564 -0.700566 0)
(-1.99752 -1.21994 0)
(-1.85736 -1.70961 0)
(-1.60195 -2.10864 0)
(-1.09832 -2.21094 0)
(-0.61407 -1.87822 0)
(0.0330601 -1.12431 0)
(2.03204e-231 -0.0107235 0)
(-0.0242053 0.493894 0)
(-0.144692 1.09768 0)
(-0.339528 1.44941 0)
(-0.528782 1.56888 0)
(-0.71002 1.58887 0)
(-0.879475 1.50764 0)
(-1.02755 1.39899 0)
(-1.17681 1.24709 0)
(-1.31219 1.07418 0)
(-1.45957 0.864647 0)
(-1.60074 0.603187 0)
(-1.75285 0.282702 0)
(-1.89237 -0.140896 0)
(-2.00943 -0.642315 0)
(-2.07527 -1.26945 0)
(-2.01746 -1.89263 0)
(-1.83895 -2.50443 0)
(-1.36274 -2.75184 0)
(-0.829726 -2.54688 0)
(-0.00397105 -1.49398 0)
(5.15666e-202 4.22958e-184 0)
(-0.0417967 0.561 0)
(-0.190076 1.23569 0)
(-0.407219 1.62093 0)
(-0.598253 1.73245 0)
(-0.756118 1.74345 0)
(-0.897472 1.64563 0)
(-1.00085 1.52888 0)
(-1.10863 1.3718 0)
(-1.19409 1.20087 0)
(-1.30039 0.997973 0)
(-1.39943 0.745318 0)
(-1.53074 0.433494 0)
(-1.65959 0.00697139 0)
(-1.81313 -0.515015 0)
(-1.93696 -1.20609 0)
(-2.01047 -1.94417 0)
(-1.95794 -2.75059 0)
(-1.62913 -3.22933 0)
(-1.10928 -3.21657 0)
(-0.0086739 -1.98047 0)
(1.69183e-183 2.24385e-184 0)
(-0.0614617 0.73341 0)
(-0.233985 1.46738 0)
(-0.457286 1.86669 0)
(-0.631133 1.91896 0)
(-0.743566 1.89488 0)
(-0.833146 1.75276 0)
(-0.867393 1.61397 0)
(-0.906618 1.44062 0)
(-0.913844 1.2671 0)
(-0.946634 1.07048 0)
(-0.969413 0.832388 0)
(-1.03971 0.543852 0)
(-1.11988 0.138298 0)
(-1.26742 -0.363042 0)
(-1.43153 -1.0769 0)
(-1.63165 -1.86953 0)
(-1.78616 -2.89325 0)
(-1.73661 -3.60883 0)
(-1.47822 -4.18784 0)
(-0.442336 -2.64718 0)
(4.17748e-254 -4.22958e-184 0)
(-0.126766 0.841925 0)
(-0.366736 1.61819 0)
(-0.585898 2.01233 0)
(-0.718747 2.00868 0)
(-0.724535 1.94423 0)
(-0.715782 1.7642 0)
(-0.625207 1.6029 0)
(-0.554516 1.41686 0)
(-0.442298 1.24186 0)
(-0.370319 1.0552 0)
(-0.283981 0.839531 0)
(-0.268636 0.588608 0)
(-0.263325 0.23685 0)
(-0.386506 -0.195341 0)
(-0.53969 -0.835132 0)
(-0.902067 -1.57912 0)
(-1.22921 -2.62148 0)
(-1.78749 -3.53746 0)
(-1.80566 -4.42966 0)
(-2.01986 -3.53273 0)
(-2.43432e-264 -0.206845 0)
(-0.180318 1.24772 0)
(-0.44815 1.93063 0)
(-0.589792 2.24063 0)
(-0.613324 2.05783 0)
(-0.459838 1.9057 0)
(-0.304142 1.65329 0)
(-0.0577589 1.45942 0)
(0.150889 1.258 0)
(0.398583 1.08494 0)
(0.590646 0.913667 0)
(0.794399 0.729475 0)
(0.912523 0.527164 0)
(1.01799 0.251635 0)
(0.97191 -0.078275 0)
(0.876414 -0.572445 0)
(0.513455 -1.16343 0)
(0.0777097 -2.03652 0)
(-0.715903 -2.98891 0)
(-1.2953 -4.04072 0)
(-1.87387 -4.31828 0)
(-0.827379 -2.24745 0)
(-0.39835 1.43566 0)
(-0.729341 1.99885 0)
(-0.550605 2.17153 0)
(-0.315336 1.86215 0)
(0.17772 1.63642 0)
(0.567283 1.3549 0)
(1.0388 1.1504 0)
(1.41017 0.959052 0)
(1.8018 0.80418 0)
(2.10242 0.662201 0)
(2.40371 0.519312 0)
(2.59481 0.372772 0)
(2.77544 0.179661 0)
(2.77621 -0.0388861 0)
(2.74961 -0.373248 0)
(2.39611 -0.757204 0)
(2.00267 -1.38975 0)
(1.07225 -2.1308 0)
(0.262518 -3.27032 0)
(-0.788065 -3.92588 0)
(-0.692167 -2.94442 0)
(-0.252693 2.43722 0)
(-0.0864369 2.07754 0)
(0.701545 1.87757 0)
(1.3324 1.32262 0)
(2.11389 1.04461 0)
(2.69238 0.786908 0)
(3.28635 0.624049 0)
(3.73437 0.492113 0)
(4.16931 0.393956 0)
(4.49351 0.311831 0)
(4.80351 0.235166 0)
(4.99918 0.160002 0)
(5.18181 0.0658053 0)
(5.19538 -0.0405233 0)
(5.19229 -0.202397 0)
(4.89109 -0.394262 0)
(4.56689 -0.741205 0)
(3.69559 -1.21412 0)
(2.77991 -2.24302 0)
(1.0534 -3.31813 0)
(-0.0415991 -3.80176 0)
(1.67041 1.67272 0)
(2.71852 0.978898 0)
(4.56934 0.751429 0)
(5.40877 0.423894 0)
(6.2651 0.283358 0)
(6.75418 0.172605 0)
(7.20514 0.114623 0)
(7.49663 0.0743191 0)
(7.76289 0.0492562 0)
(7.93885 0.0311514 0)
(8.10291 0.0161848 0)
(8.1871 0.00255934 0)
(8.26792 -0.0151232 0)
(8.23318 -0.0338935 0)
(8.20387 -0.0689794 0)
(7.95417 -0.104331 0)
(7.72929 -0.19802 0)
(6.99681 -0.295763 0)
(6.2693 -0.632466 0)
(4.05127 -1.00579 0)
(2.01413 -1.82891 0)
)
;

boundaryField
{
    movingWall
    {
        type            fixedValue;
        value           uniform (10 0 0);
    }
    fixedWalls
    {
        type            noSlip;
    }
    frontAndBack
    {
        type            empty;
    }
}


// ************************************************************************* //
