/*--------------------------------*- C++ -*----------------------------------*\
| =========                 |                                                 |
| \\      /  F ield         | OpenFOAM: The Open Source CFD Toolbox           |
|  \\    /   O peration     | Version:  4.1                                   |
|   \\  /    A nd           | Web:      www.OpenFOAM.org                      |
|    \\/     M anipulation  |                                                 |
\*---------------------------------------------------------------------------*/
FoamFile
{
    version     2.0;
    format      ascii;
    class       volVectorField;
    location    "8.25";
    object      U;
}
// * * * * * * * * * * * * * * * * * * * * * * * * * * * * * * * * * * * * * //

dimensions      [0 1 -1 0 0 0 0];

internalField   nonuniform List<vector> 
400
(
(0.000195596 -0.00019274 0)
(-9.68639e-05 8.56832e-05 0)
(-0.00153261 0.000330216 0)
(-0.00370959 0.000510264 0)
(-0.00639554 0.000597968 0)
(-0.00925635 0.000627255 0)
(-0.01207 0.000603021 0)
(-0.0145963 0.00052946 0)
(-0.0166105 0.000400524 0)
(-0.0178796 0.000214398 0)
(-0.0181987 -2.25061e-05 0)
(-0.0174315 -0.000288395 0)
(-0.0155613 -0.000546067 0)
(-0.0127411 -0.000745308 0)
(-0.00929851 -0.000837259 0)
(-0.00573472 -0.000782431 0)
(-0.00259279 -0.00058268 0)
(-0.000423734 -0.000258905 0)
(0.000541988 6.89663e-05 0)
(0.000311827 0.000296966 0)
(-8.97015e-05 8.75889e-05 0)
(-0.002039 0.00191672 0)
(-0.00640271 0.00361585 0)
(-0.0122878 0.0048313 0)
(-0.0191961 0.00545174 0)
(-0.0264044 0.00556701 0)
(-0.0333637 0.00521537 0)
(-0.0394931 0.00441611 0)
(-0.0442541 0.00316767 0)
(-0.0471287 0.00149987 0)
(-0.0476954 -0.000492723 0)
(-0.0457069 -0.00262358 0)
(-0.0411815 -0.00461684 0)
(-0.0344851 -0.00613757 0)
(-0.0263337 -0.00686603 0)
(-0.0177826 -0.0065776 0)
(-0.00997845 -0.00527237 0)
(-0.00408583 -0.00317616 0)
(-0.000631695 -0.000950018 0)
(0.000173558 0.000574417 0)
(-0.000414726 0.00165698 0)
(-0.00430769 0.00640659 0)
(-0.0116366 0.0104111 0)
(-0.0209315 0.0131598 0)
(-0.0314839 0.014507 0)
(-0.0422952 0.014591 0)
(-0.0525942 0.0134873 0)
(-0.0615673 0.011242 0)
(-0.0684691 0.00788943 0)
(-0.0726027 0.00354623 0)
(-0.0734161 -0.00152149 0)
(-0.0705925 -0.00685264 0)
(-0.0641565 -0.0118016 0)
(-0.0545735 -0.0156072 0)
(-0.0427625 -0.0175435 0)
(-0.0301121 -0.0171018 0)
(-0.0181771 -0.0142513 0)
(-0.00863389 -0.00950259 0)
(-0.00234186 -0.00420374 0)
(-1.69047e-05 -2.87912e-05 0)
(-0.000733654 0.00438861 0)
(-0.00653646 0.0132606 0)
(-0.0167096 0.020142 0)
(-0.0291462 0.024634 0)
(-0.0429384 0.0266957 0)
(-0.0568702 0.0265559 0)
(-0.0700311 0.0243448 0)
(-0.0814634 0.0201452 0)
(-0.0902976 0.0140439 0)
(-0.0957207 0.00626674 0)
(-0.0970769 -0.00272072 0)
(-0.0939555 -0.0121485 0)
(-0.086303 -0.0209532 0)
(-0.0745505 -0.0278749 0)
(-0.0596629 -0.0316766 0)
(-0.0432328 -0.0314396 0)
(-0.0271668 -0.0269883 0)
(-0.0137272 -0.0190663 0)
(-0.00425121 -0.00973018 0)
(-0.000209761 -0.00153396 0)
(-0.00100571 0.00825315 0)
(-0.00853377 0.0224461 0)
(-0.0213065 0.0327579 0)
(-0.0365927 0.0391665 0)
(-0.0532958 0.0419008 0)
(-0.0700244 0.0413504 0)
(-0.085789 0.037732 0)
(-0.0995558 0.0311756 0)
(-0.11039 0.021823 0)
(-0.117396 0.0100039 0)
(-0.11981 -0.00362804 0)
(-0.117071 -0.0180036 0)
(-0.10894 -0.0316303 0)
(-0.0956678 -0.0426907 0)
(-0.0781072 -0.0493048 0)
(-0.057943 -0.0499413 0)
(-0.0374214 -0.0440521 0)
(-0.0195467 -0.0324597 0)
(-0.0063619 -0.0179294 0)
(-0.000387688 -0.0040335 0)
(-0.00123646 0.0130702 0)
(-0.0102444 0.0336319 0)
(-0.0252719 0.0478556 0)
(-0.0430372 0.0563215 0)
(-0.062283 0.0596954 0)
(-0.081488 0.0586135 0)
(-0.0996363 0.0534208 0)
(-0.115677 0.0443024 0)
(-0.12866 0.0314395 0)
(-0.137638 0.0152263 0)
(-0.141733 -0.00355359 0)
(-0.140184 -0.0235957 0)
(-0.132467 -0.0430185 0)
(-0.118496 -0.0594202 0)
(-0.0988221 -0.0701334 0)
(-0.0750518 -0.0727331 0)
(-0.049696 -0.0659214 0)
(-0.0266452 -0.0502875 0)
(-0.00894433 -0.0292456 0)
(-0.000600911 -0.00764361 0)
(-0.00141622 0.0186891 0)
(-0.0116032 0.0465128 0)
(-0.0284496 0.0650718 0)
(-0.0482269 0.0757356 0)
(-0.0695541 0.0797578 0)
(-0.0908295 0.0781091 0)
(-0.111058 0.0713098 0)
(-0.129228 0.0596068 0)
(-0.144424 0.0431942 0)
(-0.15569 0.0224686 0)
(-0.162053 -0.00174918 0)
(-0.162541 -0.0280306 0)
(-0.156278 -0.0542025 0)
(-0.142705 -0.077309 0)
(-0.121855 -0.0937801 0)
(-0.0949817 -0.0999676 0)
(-0.0646364 -0.0932784 0)
(-0.0356226 -0.0735114 0)
(-0.0123211 -0.0444962 0)
(-0.000898592 -0.01269 0)
(-0.00154004 0.0249011 0)
(-0.0125568 0.0606654 0)
(-0.0306981 0.0838896 0)
(-0.0519032 0.0968684 0)
(-0.0747042 0.101575 0)
(-0.097469 0.0994001 0)
(-0.119267 0.0910913 0)
(-0.13918 0.0769675 0)
(-0.156391 0.0572081 0)
(-0.169996 0.0321409 0)
(-0.178993 0.00250956 0)
(-0.182247 -0.0302861 0)
(-0.178537 -0.0639498 0)
(-0.166751 -0.0951026 0)
(-0.146194 -0.11926 0)
(-0.117394 -0.13126 0)
(-0.0825062 -0.126524 0)
(-0.0470032 -0.103152 0)
(-0.0168566 -0.0647472 0)
(-0.0013476 -0.0196686 0)
(-0.00160501 0.0314911 0)
(-0.0130711 0.075633 0)
(-0.031911 0.103728 0)
(-0.0538412 0.119078 0)
(-0.0773359 0.124493 0)
(-0.100781 0.121861 0)
(-0.123348 0.112219 0)
(-0.144271 0.0959797 0)
(-0.162896 0.0732913 0)
(-0.178462 0.0443529 0)
(-0.190045 0.00971806 0)
(-0.196462 -0.0294166 0)
(-0.196254 -0.0708657 0)
(-0.187783 -0.111089 0)
(-0.169499 -0.144865 0)
(-0.140811 -0.165409 0)
(-0.102834 -0.165452 0)
(-0.0610361 -0.14008 0)
(-0.0229157 -0.091288 0)
(-0.00203008 -0.0292969 0)
(-0.00161952 0.0382195 0)
(-0.0131721 0.0908957 0)
(-0.0320868 0.123896 0)
(-0.0539466 0.141558 0)
(-0.0771851 0.147629 0)
(-0.100257 0.144575 0)
(-0.122476 0.133794 0)
(-0.143283 0.115825 0)
(-0.162257 0.0907956 0)
(-0.178881 0.0587437 0)
(-0.19244 0.0199475 0)
(-0.201881 -0.024764 0)
(-0.205698 -0.0735865 0)
(-0.201901 -0.123203 0)
(-0.188126 -0.168079 0)
(-0.162393 -0.200046 0)
(-0.124067 -0.208688 0)
(-0.077449 -0.184513 0)
(-0.0308308 -0.125404 0)
(-0.00306011 -0.0425096 0)
(-0.00161994 0.0449258 0)
(-0.0129915 0.106011 0)
(-0.0313972 0.143721 0)
(-0.0523469 0.163427 0)
(-0.0742441 0.169941 0)
(-0.095682 0.166381 0)
(-0.116155 0.154586 0)
(-0.135375 0.135273 0)
(-0.153217 0.108581 0)
(-0.169497 0.074391 0)
(-0.183839 0.0326682 0)
(-0.195502 -0.0162414 0)
(-0.203191 -0.0711611 0)
(-0.204853 -0.129441 0)
(-0.197594 -0.18588 0)
(-0.178047 -0.231631 0)
(-0.143338 -0.253272 0)
(-0.0951111 -0.235386 0)
(-0.0407997 -0.168021 0)
(-0.00459627 -0.0604697 0)
(-0.00167492 0.0514865 0)
(-0.0128356 0.12055 0)
(-0.0302991 0.162482 0)
(-0.0495311 0.183674 0)
(-0.0689161 0.190191 0)
(-0.0873061 0.185865 0)
(-0.104437 0.173069 0)
(-0.120364 0.15274 0)
(-0.135306 0.125078 0)
(-0.149477 0.0898412 0)
(-0.162928 0.0467004 0)
(-0.175373 -0.00451865 0)
(-0.185974 -0.0634203 0)
(-0.192972 -0.12841 0)
(-0.193429 -0.195355 0)
(-0.182979 -0.255871 0)
(-0.156532 -0.294544 0)
(-0.111708 -0.289681 0)
(-0.0526817 -0.219089 0)
(-0.00685039 -0.0844998 0)
(-0.00194523 0.0582262 0)
(-0.0132448 0.134579 0)
(-0.0295439 0.179802 0)
(-0.0463185 0.201438 0)
(-0.0619588 0.20715 0)
(-0.075788 0.201534 0)
(-0.0878672 0.187573 0)
(-0.0986871 0.166442 0)
(-0.108843 0.13844 0)
(-0.118969 0.103245 0)
(-0.129573 0.0602891 0)
(-0.140891 0.00892781 0)
(-0.152706 -0.0512366 0)
(-0.163884 -0.119872 0)
(-0.172032 -0.194535 0)
(-0.172496 -0.268634 0)
(-0.158721 -0.326672 0)
(-0.123566 -0.342072 0)
(-0.0656267 -0.27682 0)
(-0.010071 -0.115953 0)
(-0.00268064 0.0654104 0)
(-0.0152008 0.147986 0)
(-0.0304284 0.195034 0)
(-0.0440625 0.21553 0)
(-0.0545659 0.219277 0)
(-0.0621426 0.211643 0)
(-0.0673048 0.196247 0)
(-0.0711086 0.174467 0)
(-0.074535 0.146699 0)
(-0.0786296 0.112569 0)
(-0.0843191 0.0713464 0)
(-0.0923481 0.0220321 0)
(-0.103181 -0.0364286 0)
(-0.116498 -0.104917 0)
(-0.131004 -0.182961 0)
(-0.142607 -0.266916 0)
(-0.144716 -0.34364 0)
(-0.12571 -0.385105 0)
(-0.0775644 -0.336803 0)
(-0.0144633 -0.15572 0)
(-0.00442853 0.0753096 0)
(-0.019988 0.162469 0)
(-0.0342103 0.208697 0)
(-0.0437663 0.225292 0)
(-0.0473244 0.225207 0)
(-0.0466217 0.214446 0)
(-0.0427577 0.197178 0)
(-0.0375046 0.174826 0)
(-0.0322118 0.147801 0)
(-0.028298 0.115665 0)
(-0.0270349 0.077579 0)
(-0.0295935 0.0323336 0)
(-0.0370744 -0.0215486 0)
(-0.0500069 -0.0858658 0)
(-0.0685424 -0.161965 0)
(-0.0898902 -0.249703 0)
(-0.109262 -0.340606 0)
(-0.111932 -0.410246 0)
(-0.0844915 -0.391644 0)
(-0.0199798 -0.203799 0)
(-0.0080419 0.088142 0)
(-0.0301999 0.177101 0)
(-0.0428344 0.218741 0)
(-0.0462426 0.228011 0)
(-0.0396091 0.222077 0)
(-0.0274957 0.207245 0)
(-0.0117092 0.18792 0)
(0.00510905 0.165312 0)
(0.0213259 0.139695 0)
(0.035239 0.110527 0)
(0.045353 0.0769053 0)
(0.0501978 0.0375579 0)
(0.0481696 -0.0091458 0)
(0.0380144 -0.0654541 0)
(0.0180813 -0.133971 0)
(-0.0105287 -0.217735 0)
(-0.0465926 -0.314362 0)
(-0.0745714 -0.408491 0)
(-0.0797372 -0.430008 0)
(-0.0257469 -0.256966 0)
(-0.0146483 0.11431 0)
(-0.0454338 0.197441 0)
(-0.0521024 0.226355 0)
(-0.0440256 0.221865 0)
(-0.0216748 0.206907 0)
(0.00620734 0.186877 0)
(0.037307 0.165509 0)
(0.0681897 0.143281 0)
(0.0971657 0.120026 0)
(0.122443 0.0950113 0)
(0.142492 0.0672675 0)
(0.155727 0.0355771 0)
(0.160259 -0.00162336 0)
(0.154336 -0.0465524 0)
(0.135087 -0.102331 0)
(0.101915 -0.173972 0)
(0.0514003 -0.265065 0)
(-0.00293804 -0.373326 0)
(-0.0518986 -0.438897 0)
(-0.0285237 -0.309782 0)
(-0.0256271 0.141932 0)
(-0.0657006 0.209123 0)
(-0.0482687 0.216532 0)
(-0.0150678 0.195185 0)
(0.0334284 0.171476 0)
(0.0831184 0.148117 0)
(0.13268 0.126818 0)
(0.178759 0.107055 0)
(0.220303 0.0880569 0)
(0.25596 0.0689297 0)
(0.284557 0.0487097 0)
(0.304712 0.0263687 0)
(0.314601 0.000621624 0)
(0.312244 -0.0302629 0)
(0.294131 -0.069107 0)
(0.258189 -0.120925 0)
(0.196645 -0.193129 0)
(0.118453 -0.296339 0)
(0.0176444 -0.39537 0)
(-0.0171997 -0.338902 0)
(-0.018733 0.214646 0)
(-0.0197775 0.215355 0)
(0.0565844 0.181503 0)
(0.128518 0.140227 0)
(0.20524 0.110326 0)
(0.273275 0.0880785 0)
(0.334725 0.070867 0)
(0.388198 0.0569738 0)
(0.43405 0.0449708 0)
(0.472021 0.0338896 0)
(0.501713 0.0229063 0)
(0.522332 0.0113132 0)
(0.532566 -0.00172092 0)
(0.530657 -0.0171785 0)
(0.513439 -0.0370585 0)
(0.47793 -0.0647746 0)
(0.414413 -0.108555 0)
(0.323812 -0.186708 0)
(0.173098 -0.296545 0)
(0.0429596 -0.335027 0)
(0.211347 0.129562 0)
(0.297327 0.100953 0)
(0.451227 0.0674625 0)
(0.543305 0.0442954 0)
(0.618008 0.0290578 0)
(0.673826 0.0198218 0)
(0.717683 0.0138264 0)
(0.752227 0.00979163 0)
(0.779438 0.00682616 0)
(0.800318 0.00443462 0)
(0.815298 0.00228614 0)
(0.824321 0.000160994 0)
(0.826887 -0.00216285 0)
(0.821991 -0.00487346 0)
(0.807753 -0.00851659 0)
(0.781192 -0.0136889 0)
(0.734276 -0.0229005 0)
(0.658585 -0.0407313 0)
(0.498156 -0.0743719 0)
(0.288346 -0.136218 0)
)
;

boundaryField
{
    movingWall
    {
        type            fixedValue;
        value           uniform (1 0 0);
    }
    fixedWalls
    {
        type            noSlip;
    }
    frontAndBack
    {
        type            empty;
    }
}


// ************************************************************************* //
