/*--------------------------------*- C++ -*----------------------------------*\
| =========                 |                                                 |
| \\      /  F ield         | OpenFOAM: The Open Source CFD Toolbox           |
|  \\    /   O peration     | Version:  4.1                                   |
|   \\  /    A nd           | Web:      www.OpenFOAM.org                      |
|    \\/     M anipulation  |                                                 |
\*---------------------------------------------------------------------------*/
FoamFile
{
    version     2.0;
    format      ascii;
    class       volScalarField;
    location    "0.0046";
    object      p;
}
// * * * * * * * * * * * * * * * * * * * * * * * * * * * * * * * * * * * * * //

dimensions      [1 -1 -2 0 0 0 0];

internalField   nonuniform List<scalar> 
441
(
100000
99999.9
99999.7
99999.9
99999.9
99999.6
100000
100000
100000
100001
100001
100001
100001
100001
100001
100001
100001
100001
100001
100001
100001
100000
100000
100000
100000
100000
100000
100000
100000
100000
100000
100000
100000
100000
100000
100000
100001
100000
100001
100000
100001
100000
100000
99999.9
100000
99999.9
100000
99999.9
100000
100000
100000
100001
100001
100001
100001
100001
100001
100001
100001
100001
100001
100001
100001
100000
100000
100000
100000
100000
100000
100000
100000
100000
100000
100000
100000
100000
100001
100001
100001
100001
100001
100001
100001
100001
100000
99999.6
99999.8
99999.7
99999.8
99999.9
100000
100000
100000
100000
100000
100001
100001
100001
100001
100001
100001
100001
100001
100001
100001
99999
99999.6
99999.5
99999.7
99999.7
99999.8
99999.9
100000
100000
100000
100000
100001
100001
100001
100001
100001
100001
100001
100001
100001
100001
99998.7
99999
99999.1
99999.2
99999.3
99999.5
99999.6
99999.8
100000
100000
100000
100001
100001
100001
100001
100001
100001
100001
100001
100002
100000
99998.8
99998.9
99998.8
99999
99999.1
99999.3
99999.4
99999.7
99999.9
100000
100000
100001
100001
100001
100001
100001
100001
100002
100001
100002
100001
99998.1
99998.1
99998.2
99998.4
99998.5
99998.8
99999
99999.4
99999.7
100000
100000
100001
100001
100001
100002
100002
100002
100002
100002
100003
100002
99997.8
99997.8
99997.8
99998
99998.1
99998.5
99998.7
99999.1
99999.4
99999.9
100000
100001
100001
100002
100002
100002
100002
100003
100002
100003
100002
99996.7
99996.7
99996.8
99997.1
99997.3
99997.7
99998.1
99998.6
99999.1
99999.7
100000
100001
100001
100002
100002
100003
100003
100004
100004
100004
100004
99996.2
99996.2
99996.3
99996.6
99996.7
99997.2
99997.6
99998.2
99998.8
99999.4
100000
100001
100002
100002
100003
100003
100004
100004
100004
100004
100004
99994.6
99994.6
99994.7
99995.2
99995.4
99996.2
99996.6
99997.5
99998.2
99999.1
100000
100001
100002
100003
100004
100004
100005
100005
100005
100006
100003
99994
99994.1
99994
99994.6
99994.7
99995.5
99996
99996.9
99997.7
99998.7
99999.8
100001
100002
100003
100004
100005
100006
100006
100006
100007
100005
99991.3
99991.6
99991.5
99992.6
99992.8
99994
99994.7
99995.9
99997
99998.2
99999.6
100001
100002
100003
100005
100006
100008
100008
100009
100009
100006
99990.9
99991.2
99990.9
99992
99992
99993.3
99993.9
99995.3
99996.4
99997.7
99999.2
100000
100002
100003
100005
100006
100008
100009
100010
100010
100004
99985.9
99987.4
99986.7
99989.1
99989.2
99991.4
99992.2
99994.1
99995.5
99997.1
99998.9
100000
100003
100004
100007
100008
100012
100011
100019
100013
100029
99986
99987.4
99986.2
99988.5
99988.4
99990.6
99991.4
99993.4
99994.8
99996.5
99998.4
99999.8
100002
100003
100006
100007
100011
100012
100018
100018
100027
99973.9
99981.2
99979.3
99984.8
99984.9
99988.5
99989.7
99992.3
99994
99996
99998.1
99999.6
100002
100003
100007
100008
100014
100015
100026
100026
100041
99974.2
99982.5
99979.8
99984.6
99984.5
99988.1
99989.3
99991.9
99993.7
99995.6
99997.7
99999.2
100002
100003
100006
100007
100013
100012
100024
100026
100045
99932.1
99974.9
99973
99983.7
99983.5
99988
99989.2
99992
99993.7
99995.7
99997.9
99999.3
100002
100003
100007
100008
100016
100017
100037
100044
100100
)
;

boundaryField
{
    movingWall
    {
        type            zeroGradient;
    }
    fixedWalls
    {
        type            zeroGradient;
    }
    frontAndBack
    {
        type            empty;
    }
}


// ************************************************************************* //
