/*--------------------------------*- C++ -*----------------------------------*\
| =========                 |                                                 |
| \\      /  F ield         | OpenFOAM: The Open Source CFD Toolbox           |
|  \\    /   O peration     | Version:  4.1                                   |
|   \\  /    A nd           | Web:      www.OpenFOAM.org                      |
|    \\/     M anipulation  |                                                 |
\*---------------------------------------------------------------------------*/
FoamFile
{
    version     2.0;
    format      ascii;
    class       volVectorField;
    location    "0.174";
    object      U;
}
// * * * * * * * * * * * * * * * * * * * * * * * * * * * * * * * * * * * * * //

dimensions      [0 1 -1 0 0 0 0];

internalField   nonuniform List<vector> 
100
(
(-0.00137305 0.000723732 0)
(-0.00414341 0.00107948 0)
(-0.0118998 0.00145318 0)
(-0.0163881 0.000674755 0)
(-0.0212661 0.000430896 0)
(-0.0227273 -0.000956113 0)
(-0.0208216 -0.00163522 0)
(-0.0165351 -0.00315095 0)
(-0.00670243 -0.0030372 0)
(-0.00221267 -0.00234991 0)
(-0.00293154 0.00484396 0)
(-0.0109542 0.00937859 0)
(-0.0262848 0.01109 0)
(-0.0359789 0.00847587 0)
(-0.0449577 0.00631231 0)
(-0.0475686 0.000223257 0)
(-0.0437941 -0.00421434 0)
(-0.0347007 -0.011255 0)
(-0.0159563 -0.0111743 0)
(-0.00415563 -0.00655117 0)
(-0.00381936 0.0146107 0)
(-0.0148799 0.0242189 0)
(-0.0343246 0.0267122 0)
(-0.0471483 0.0189119 0)
(-0.0591815 0.0123242 0)
(-0.0635989 -0.00264632 0)
(-0.0605129 -0.0143068 0)
(-0.0495448 -0.0315448 0)
(-0.0251696 -0.0336985 0)
(-0.00658568 -0.0226978 0)
(-0.00608242 0.0233567 0)
(-0.0207331 0.0395925 0)
(-0.045404 0.0435364 0)
(-0.0621144 0.0329912 0)
(-0.0779832 0.0232802 0)
(-0.0859587 0.0013491 0)
(-0.0855144 -0.0175772 0)
(-0.0741713 -0.0466292 0)
(-0.042722 -0.0535982 0)
(-0.0117982 -0.0378435 0)
(-0.007178 0.0416544 0)
(-0.0239537 0.0632107 0)
(-0.0522629 0.0686014 0)
(-0.0723888 0.0507539 0)
(-0.093443 0.0366282 0)
(-0.107148 0.00391451 0)
(-0.113665 -0.0259194 0)
(-0.105511 -0.0755631 0)
(-0.0691509 -0.0966771 0)
(-0.020248 -0.0781603 0)
(-0.0139686 0.0538802 0)
(-0.0367822 0.0839719 0)
(-0.0706345 0.0920928 0)
(-0.0951928 0.0734712 0)
(-0.120022 0.0587972 0)
(-0.139409 0.021193 0)
(-0.153941 -0.0179162 0)
(-0.150235 -0.0910149 0)
(-0.110931 -0.137695 0)
(-0.0359187 -0.12642 0)
(-0.0153563 0.0933355 0)
(-0.0376689 0.119127 0)
(-0.0710657 0.128235 0)
(-0.093673 0.0987091 0)
(-0.117782 0.0816624 0)
(-0.13564 0.0358849 0)
(-0.156668 -0.0147244 0)
(-0.158392 -0.120978 0)
(-0.132515 -0.212394 0)
(-0.0496028 -0.228556 0)
(-0.0398321 0.105137 0)
(-0.0698775 0.13815 0)
(-0.0829556 0.148398 0)
(-0.0883614 0.118981 0)
(-0.0892108 0.102273 0)
(-0.0865825 0.0593746 0)
(-0.100618 0.00765568 0)
(-0.101265 -0.114338 0)
(-0.109347 -0.242511 0)
(-0.0520627 -0.307005 0)
(-0.0362564 0.206198 0)
(-0.0246229 0.160501 0)
(0.0101208 0.150249 0)
(0.0531866 0.102893 0)
(0.0878029 0.0821172 0)
(0.132664 0.0445505 0)
(0.140795 0.00215459 0)
(0.155301 -0.11473 0)
(0.0797497 -0.26066 0)
(0.0185093 -0.397534 0)
(0.14697 0.160285 0)
(0.235185 0.088972 0)
(0.384409 0.072338 0)
(0.462262 0.0405349 0)
(0.523662 0.0261666 0)
(0.572668 0.00703354 0)
(0.573385 -0.0078685 0)
(0.570344 -0.0471845 0)
(0.410746 -0.0916182 0)
(0.220305 -0.195178 0)
)
;

boundaryField
{
    movingWall
    {
        type            fixedValue;
        value           uniform (1 0 0);
    }
    fixedWalls
    {
        type            noSlip;
    }
    frontAndBack
    {
        type            empty;
    }
}


// ************************************************************************* //
