/*--------------------------------*- C++ -*----------------------------------*\
| =========                 |                                                 |
| \\      /  F ield         | OpenFOAM: The Open Source CFD Toolbox           |
|  \\    /   O peration     | Version:  4.1                                   |
|   \\  /    A nd           | Web:      www.OpenFOAM.org                      |
|    \\/     M anipulation  |                                                 |
\*---------------------------------------------------------------------------*/
FoamFile
{
    version     2.0;
    format      ascii;
    class       volVectorField;
    location    "7.25";
    object      U;
}
// * * * * * * * * * * * * * * * * * * * * * * * * * * * * * * * * * * * * * //

dimensions      [0 1 -1 0 0 0 0];

internalField   nonuniform List<vector> 
400
(
(0.000190679 -0.000187823 0)
(-0.00010284 8.67527e-05 0)
(-0.00152165 0.000327353 0)
(-0.00366899 0.0005043 0)
(-0.00631656 0.000590344 0)
(-0.00913596 0.000618878 0)
(-0.0119092 0.000594792 0)
(-0.0144005 0.000522301 0)
(-0.0163894 0.00039549 0)
(-0.0176467 0.000212499 0)
(-0.0179704 -2.05504e-05 0)
(-0.0172248 -0.000282455 0)
(-0.0153913 -0.00053681 0)
(-0.012618 -0.000734241 0)
(-0.00922554 -0.000826489 0)
(-0.00570664 -0.000774214 0)
(-0.00259694 -0.000578693 0)
(-0.0004427 -0.000259761 0)
(0.000525172 6.45844e-05 0)
(0.000306851 0.000292046 0)
(-9.0167e-05 9.36417e-05 0)
(-0.00201415 0.00189651 0)
(-0.00631269 0.00356774 0)
(-0.0121071 0.00476252 0)
(-0.0189084 0.0053725 0)
(-0.0260071 0.00548628 0)
(-0.0328646 0.00514175 0)
(-0.0389108 0.0043579 0)
(-0.0436167 0.00313277 0)
(-0.0464718 0.00149454 0)
(-0.0470585 -0.00046533 0)
(-0.0451289 -0.00256489 0)
(-0.0406953 -0.00453356 0)
(-0.0341126 -0.0060414 0)
(-0.026082 -0.00677189 0)
(-0.017642 -0.00650073 0)
(-0.00992426 -0.00522428 0)
(-0.00408315 -0.00316111 0)
(-0.000645461 -0.000960681 0)
(0.000168546 0.00055753 0)
(-0.000408612 0.00164097 0)
(-0.00423833 0.00631708 0)
(-0.0114462 0.0102555 0)
(-0.0205892 0.0129594 0)
(-0.0309732 0.0142872 0)
(-0.0416189 0.0143755 0)
(-0.0517703 0.0132985 0)
(-0.0606286 0.0111004 0)
(-0.06746 0.00781293 0)
(-0.0715754 0.00354735 0)
(-0.0724256 -0.00143849 0)
(-0.0696907 -0.00669404 0)
(-0.0633864 -0.0115849 0)
(-0.0539641 -0.01536 0)
(-0.0423249 -0.0172997 0)
(-0.0298369 -0.0168957 0)
(-0.0180364 -0.0141096 0)
(-0.00858484 -0.00943633 0)
(-0.00233886 -0.00420061 0)
(-2.00691e-05 -5.13876e-05 0)
(-0.000720572 0.00432607 0)
(-0.00642152 0.0130548 0)
(-0.0164203 0.0198239 0)
(-0.0286508 0.0242476 0)
(-0.0422245 0.026287 0)
(-0.0559497 0.0261668 0)
(-0.0689332 0.0240139 0)
(-0.0802334 0.0199067 0)
(-0.0889919 0.0139255 0)
(-0.0944016 0.00628556 0)
(-0.0958073 -0.00256146 0)
(-0.0927929 -0.011862 0)
(-0.0852952 -0.0205693 0)
(-0.0737311 -0.0274381 0)
(-0.0590484 -0.0312408 0)
(-0.0428191 -0.0310603 0)
(-0.0269294 -0.0267105 0)
(-0.0136218 -0.0189126 0)
(-0.00422599 -0.00968753 0)
(-0.000210319 -0.00155155 0)
(-0.000986972 0.00812115 0)
(-0.00838172 0.0220808 0)
(-0.020938 0.0322288 0)
(-0.0359778 0.0385488 0)
(-0.0524286 0.0412656 0)
(-0.0689261 0.0407606 0)
(-0.084499 0.0372431 0)
(-0.0981287 0.0308346 0)
(-0.108888 0.0216654 0)
(-0.115886 0.010049 0)
(-0.118355 -0.00338009 0)
(-0.115728 -0.0175738 0)
(-0.107757 -0.03106 0)
(-0.0946816 -0.0420397 0)
(-0.0773405 -0.0486455 0)
(-0.0574012 -0.0493507 0)
(-0.0370891 -0.043597 0)
(-0.0193837 -0.0321798 0)
(-0.00631354 -0.0178186 0)
(-0.000385654 -0.00403415 0)
(-0.00121412 0.0128527 0)
(-0.0100698 0.0330778 0)
(-0.0248568 0.0470846 0)
(-0.0423551 0.0554467 0)
(-0.0613349 0.0588159 0)
(-0.0803036 0.0578139 0)
(-0.0982625 0.0527725 0)
(-0.114173 0.0438625 0)
(-0.12709 0.0312477 0)
(-0.136064 0.0153009 0)
(-0.140212 -0.00321735 0)
(-0.138767 -0.0230259 0)
(-0.131197 -0.0422651 0)
(-0.117408 -0.0585532 0)
(-0.097947 -0.0692394 0)
(-0.074406 -0.0719081 0)
(-0.0492788 -0.0652563 0)
(-0.0264269 -0.0498461 0)
(-0.00887281 -0.0290384 0)
(-0.000596163 -0.00761542 0)
(-0.0013931 0.0183788 0)
(-0.0114248 0.0457581 0)
(-0.0280294 0.0640486 0)
(-0.0475427 0.0745988 0)
(-0.0686131 0.0786359 0)
(-0.0896674 0.0771075 0)
(-0.109726 0.0705134 0)
(-0.127785 0.059079 0)
(-0.142929 0.0429745 0)
(-0.154198 0.022571 0)
(-0.160608 -0.00133589 0)
(-0.161182 -0.0273405 0)
(-0.155037 -0.0532901 0)
(-0.141612 -0.0762481 0)
(-0.120942 -0.0926636 0)
(-0.0942756 -0.0989049 0)
(-0.0641556 -0.0923838 0)
(-0.0353563 -0.0728797 0)
(-0.0122272 -0.0441664 0)
(-0.000890917 -0.012621 0)
(-0.00151923 0.0245016 0)
(-0.0123956 0.0597192 0)
(-0.0303182 0.0826282 0)
(-0.0512873 0.0954885 0)
(-0.0738641 0.100234 0)
(-0.0964434 0.0982228 0)
(-0.118107 0.0901722 0)
(-0.137942 0.0763719 0)
(-0.155125 0.0569708 0)
(-0.168743 0.0322678 0)
(-0.177783 0.00298104 0)
(-0.181098 -0.0295095 0)
(-0.177466 -0.0629233 0)
(-0.165775 -0.0938966 0)
(-0.14534 -0.117964 0)
(-0.116696 -0.129986 0)
(-0.0819998 -0.125404 0)
(-0.0467035 -0.102314 0)
(-0.0167429 -0.0642737 0)
(-0.00133671 -0.0195472 0)
(-0.00158952 0.0310169 0)
(-0.0129473 0.0745254 0)
(-0.0316154 0.102266 0)
(-0.0533613 0.117497 0)
(-0.0766859 0.122977 0)
(-0.0999989 0.12055 0)
(-0.122482 0.111216 0)
(-0.14337 0.0953454 0)
(-0.161999 0.0730523 0)
(-0.177594 0.044503 0)
(-0.189217 0.010227 0)
(-0.195674 -0.0285943 0)
(-0.1955 -0.0697839 0)
(-0.187062 -0.109809 0)
(-0.168824 -0.143462 0)
(-0.140212 -0.163984 0)
(-0.10236 -0.164142 0)
(-0.0607292 -0.139044 0)
(-0.0227881 -0.0906593 0)
(-0.00201588 -0.0291129 0)
(-0.00161183 0.0376951 0)
(-0.0131027 0.0896762 0)
(-0.0319127 0.122294 0)
(-0.0536594 0.139838 0)
(-0.0767989 0.145998 0)
(-0.0998056 0.143187 0)
(-0.121999 0.132753 0)
(-0.142819 0.115188 0)
(-0.161832 0.0905758 0)
(-0.178505 0.05892 0)
(-0.192106 0.0204763 0)
(-0.201569 -0.0239358 0)
(-0.205382 -0.0725117 0)
(-0.201558 -0.121932 0)
(-0.187748 -0.166665 0)
(-0.161996 -0.198566 0)
(-0.123699 -0.207263 0)
(-0.0771741 -0.183316 0)
(-0.0307 -0.124626 0)
(-0.00304293 -0.0422565 0)
(-0.00162163 0.0443835 0)
(-0.0129882 0.104744 0)
(-0.0313705 0.142055 0)
(-0.0522915 0.161644 0)
(-0.0741705 0.168267 0)
(-0.0956147 0.164978 0)
(-0.116123 0.153559 0)
(-0.135401 0.13467 0)
(-0.153313 0.108402 0)
(-0.169657 0.0745987 0)
(-0.184042 0.0332047 0)
(-0.195713 -0.0154385 0)
(-0.203369 -0.0701458 0)
(-0.204957 -0.128254 0)
(-0.197594 -0.184553 0)
(-0.177938 -0.230207 0)
(-0.143151 -0.251837 0)
(-0.0949174 -0.234103 0)
(-0.0406826 -0.167122 0)
(-0.00457716 -0.0601476 0)
(-0.00168648 0.0509625 0)
(-0.0129032 0.119307 0)
(-0.0304312 0.160836 0)
(-0.0497245 0.181913 0)
(-0.069174 0.188548 0)
(-0.0876389 0.184509 0)
(-0.104856 0.172102 0)
(-0.120876 0.152202 0)
(-0.135906 0.124956 0)
(-0.150145 0.0900829 0)
(-0.163633 0.0472355 0)
(-0.176073 -0.00376158 0)
(-0.186619 -0.0624988 0)
(-0.193513 -0.127359 0)
(-0.193822 -0.194191 0)
(-0.183197 -0.254604 0)
(-0.156582 -0.293215 0)
(-0.111644 -0.288413 0)
(-0.0526003 -0.218126 0)
(-0.00683139 -0.0841187 0)
(-0.00196615 0.0577573 0)
(-0.0133811 0.133436 0)
(-0.029831 0.178265 0)
(-0.0467536 0.199783 0)
(-0.0625355 0.205609 0)
(-0.0764981 0.200278 0)
(-0.0887017 0.1867 0)
(-0.0996314 0.165985 0)
(-0.109875 0.138377 0)
(-0.120058 0.103514 0)
(-0.13068 0.0608114 0)
(-0.141973 0.00962575 0)
(-0.153718 -0.0504245 0)
(-0.164776 -0.118982 0)
(-0.172757 -0.193573 0)
(-0.173016 -0.267589 0)
(-0.159014 -0.325545 0)
(-0.12366 -0.34093 0)
(-0.0656037 -0.275874 0)
(-0.0100553 -0.115536 0)
(-0.0027094 0.0650297 0)
(-0.0153962 0.147011 0)
(-0.0308505 0.193686 0)
(-0.0447084 0.214057 0)
(-0.0554175 0.2179 0)
(-0.0631719 0.210528 0)
(-0.06848 0.195488 0)
(-0.0723938 0.174093 0)
(-0.0758908 0.146682 0)
(-0.0800152 0.112846 0)
(-0.0856938 0.0718376 0)
(-0.0936728 0.0226584 0)
(-0.104417 -0.0357303 0)
(-0.117608 -0.104185 0)
(-0.131947 -0.182203 0)
(-0.143344 -0.266115 0)
(-0.145211 -0.342768 0)
(-0.12596 -0.384174 0)
(-0.0776155 -0.33596 0)
(-0.014455 -0.155302 0)
(-0.00446259 0.0750434 0)
(-0.0202244 0.161718 0)
(-0.0347286 0.207605 0)
(-0.0445637 0.224063 0)
(-0.0483735 0.224041 0)
(-0.0478765 0.213498 0)
(-0.0441661 0.196537 0)
(-0.0390115 0.17452 0)
(-0.0337634 0.147805 0)
(-0.0298458 0.115921 0)
(-0.0285375 0.078013 0)
(-0.0310174 0.0328722 0)
(-0.038392 -0.0209666 0)
(-0.0511939 -0.0852802 0)
(-0.0695719 -0.161389 0)
(-0.0907312 -0.249125 0)
(-0.109877 -0.33999 0)
(-0.112298 -0.409568 0)
(-0.0846168 -0.390975 0)
(-0.0199828 -0.203423 0)
(-0.00807639 0.0880022 0)
(-0.0304459 0.176602 0)
(-0.0433837 0.217943 0)
(-0.0470947 0.227065 0)
(-0.040734 0.221152 0)
(-0.0288382 0.206478 0)
(-0.0132051 0.187396 0)
(0.00352728 0.165057 0)
(0.0197214 0.139692 0)
(0.0336654 0.110731 0)
(0.0438519 0.0772548 0)
(0.0487986 0.0379904 0)
(0.0468916 -0.00868446 0)
(0.0368707 -0.0650031 0)
(0.0170848 -0.13355 0)
(-0.0113606 -0.217341 0)
(-0.0472318 -0.313967 0)
(-0.0749889 -0.408057 0)
(-0.0799164 -0.429548 0)
(-0.025763 -0.256672 0)
(-0.0146745 0.114289 0)
(-0.0456385 0.197189 0)
(-0.05258 0.225857 0)
(-0.0447855 0.221214 0)
(-0.0226996 0.206236 0)
(0.00496623 0.186299 0)
(0.0359121 0.165099 0)
(0.0667103 0.143066 0)
(0.0956676 0.12 0)
(0.120983 0.0951444 0)
(0.141113 0.0675146 0)
(0.154457 0.0358904 0)
(0.159116 -0.00128758 0)
(0.153327 -0.0462287 0)
(0.134215 -0.102041 0)
(0.101186 -0.173722 0)
(0.0508265 -0.26484 0)
(-0.003334 -0.373094 0)
(-0.0520941 -0.438638 0)
(-0.0285506 -0.309594 0)
(-0.0256334 0.141987 0)
(-0.0658018 0.209057 0)
(-0.048553 0.216284 0)
(-0.0155681 0.194803 0)
(0.0326993 0.171051 0)
(0.0821848 0.147732 0)
(0.131588 0.126529 0)
(0.177568 0.106889 0)
(0.219076 0.0880156 0)
(0.254753 0.0689962 0)
(0.283416 0.0488563 0)
(0.30367 0.0265637 0)
(0.313676 0.000834119 0)
(0.311445 -0.030059 0)
(0.293456 -0.06893 0)
(0.257636 -0.120785 0)
(0.19621 -0.193022 0)
(0.118145 -0.296247 0)
(0.0174771 -0.395266 0)
(-0.0172298 -0.338817 0)
(-0.018718 0.214712 0)
(-0.0197582 0.215381 0)
(0.056536 0.181429 0)
(0.128343 0.140071 0)
(0.204898 0.110133 0)
(0.272759 0.087893 0)
(0.334061 0.0707216 0)
(0.387428 0.0568858 0)
(0.433226 0.044944 0)
(0.471196 0.0339174 0)
(0.500931 0.0229752 0)
(0.521625 0.0114068 0)
(0.531955 -0.00161915 0)
(0.53015 -0.0170829 0)
(0.513032 -0.0369799 0)
(0.477615 -0.0647195 0)
(0.414176 -0.108524 0)
(0.323646 -0.186695 0)
(0.173001 -0.296533 0)
(0.0429383 -0.335013 0)
(0.211365 0.129588 0)
(0.297381 0.100973 0)
(0.451284 0.0674613 0)
(0.543319 0.044275 0)
(0.617942 0.0290282 0)
(0.673669 0.0197926 0)
(0.717442 0.0138045 0)
(0.751925 0.0097807 0)
(0.779107 0.00682661 0)
(0.799988 0.00444469 0)
(0.814996 0.00230271 0)
(0.824065 0.000180481 0)
(0.826687 -0.00214387 0)
(0.821848 -0.00485769 0)
(0.80766 -0.00850587 0)
(0.781139 -0.013684 0)
(0.734249 -0.022901 0)
(0.658572 -0.0407356 0)
(0.498148 -0.074377 0)
(0.288344 -0.136222 0)
)
;

boundaryField
{
    movingWall
    {
        type            fixedValue;
        value           uniform (1 0 0);
    }
    fixedWalls
    {
        type            noSlip;
    }
    frontAndBack
    {
        type            empty;
    }
}


// ************************************************************************* //
