/*--------------------------------*- C++ -*----------------------------------*\
| =========                 |                                                 |
| \\      /  F ield         | OpenFOAM: The Open Source CFD Toolbox           |
|  \\    /   O peration     | Version:  4.1                                   |
|   \\  /    A nd           | Web:      www.OpenFOAM.org                      |
|    \\/     M anipulation  |                                                 |
\*---------------------------------------------------------------------------*/
FoamFile
{
    version     2.0;
    format      ascii;
    class       volVectorField;
    location    "9.75";
    object      U;
}
// * * * * * * * * * * * * * * * * * * * * * * * * * * * * * * * * * * * * * //

dimensions      [0 1 -1 0 0 0 0];

internalField   nonuniform List<vector> 
400
(
(0.000199335 -0.000196478 0)
(-9.23427e-05 8.48762e-05 0)
(-0.00154097 0.00033239 0)
(-0.0037404 0.00051477 0)
(-0.00645531 0.000603703 0)
(-0.0093472 0.000633533 0)
(-0.012191 0.000609165 0)
(-0.0147433 0.000534787 0)
(-0.0167763 0.000404251 0)
(-0.0180538 0.00021578 0)
(-0.0183693 -2.39971e-05 0)
(-0.0175858 -0.00029285 0)
(-0.0156881 -0.000552982 0)
(-0.0128328 -0.00075356 0)
(-0.00935281 -0.000845278 0)
(-0.0057556 -0.000788542 0)
(-0.00258969 -0.00058564 0)
(-0.000409626 -0.000258263 0)
(0.000554493 7.22277e-05 0)
(0.000315526 0.000300627 0)
(-8.93581e-05 8.30079e-05 0)
(-0.00205797 0.00193212 0)
(-0.00647122 0.00365235 0)
(-0.0124251 0.00488326 0)
(-0.0194139 0.00551134 0)
(-0.0267044 0.00562745 0)
(-0.0337397 0.00527022 0)
(-0.0399306 0.0044592 0)
(-0.044732 0.00319321 0)
(-0.0476203 0.00150328 0)
(-0.0481713 -0.000513664 0)
(-0.0461381 -0.00266774 0)
(-0.0415438 -0.00467916 0)
(-0.0347624 -0.00620936 0)
(-0.026521 -0.00693618 0)
(-0.0178873 -0.00663482 0)
(-0.0100188 -0.00530813 0)
(-0.00408785 -0.00318736 0)
(-0.000621478 -0.000942087 0)
(0.00017728 0.000586973 0)
(-0.000419401 0.00166925 0)
(-0.00436054 0.00647471 0)
(-0.0117813 0.0105292 0)
(-0.0211912 0.0133113 0)
(-0.0318705 0.0146722 0)
(-0.0428058 0.0147521 0)
(-0.0532145 0.0136277 0)
(-0.0622722 0.0113464 0)
(-0.0692252 0.00794483 0)
(-0.0733708 0.00354363 0)
(-0.0741554 -0.00158494 0)
(-0.0712647 -0.00697207 0)
(-0.0647298 -0.0119638 0)
(-0.0550268 -0.0157917 0)
(-0.043088 -0.0177251 0)
(-0.0303167 -0.0172551 0)
(-0.0182818 -0.0143568 0)
(-0.00867042 -0.00955188 0)
(-0.00234414 -0.00420608 0)
(-1.45623e-05 -1.20099e-05 0)
(-0.000743631 0.00443631 0)
(-0.00662394 0.0134171 0)
(-0.0169293 0.0203831 0)
(-0.0295217 0.0249257 0)
(-0.0434781 0.0270027 0)
(-0.0575643 0.0268464 0)
(-0.0708566 0.0245902 0)
(-0.0823858 0.0203203 0)
(-0.0912745 0.0141288 0)
(-0.0967054 0.00624922 0)
(-0.098023 -0.00284243 0)
(-0.0948207 -0.0123642 0)
(-0.0870523 -0.0212405 0)
(-0.0751594 -0.0282008 0)
(-0.0601194 -0.0320011 0)
(-0.0435401 -0.0317217 0)
(-0.0273432 -0.0271947 0)
(-0.0138056 -0.0191806 0)
(-0.00427003 -0.00976194 0)
(-0.000209362 -0.00152093 0)
(-0.00101998 0.0083537 0)
(-0.00864929 0.0227237 0)
(-0.0215859 0.0331586 0)
(-0.0370581 0.0396322 0)
(-0.0539504 0.0423773 0)
(-0.0708511 0.0417901 0)
(-0.086757 0.0380937 0)
(-0.100624 0.0314249 0)
(-0.111511 0.0219347 0)
(-0.118521 0.00996463 0)
(-0.120891 -0.00381738 0)
(-0.118068 -0.018327 0)
(-0.109818 -0.0320566 0)
(-0.0963994 -0.043176 0)
(-0.0786758 -0.0497953 0)
(-0.0583449 -0.0503803 0)
(-0.0376681 -0.0443902 0)
(-0.0196678 -0.0326677 0)
(-0.00639789 -0.0180119 0)
(-0.000389221 -0.0040331 0)
(-0.00125341 0.0132356 0)
(-0.0103768 0.0340525 0)
(-0.025586 0.0484389 0)
(-0.0435522 0.0569804 0)
(-0.062997 0.0603541 0)
(-0.0823773 0.0592084 0)
(-0.100665 0.0538991 0)
(-0.1168 0.0446228 0)
(-0.12983 0.0315742 0)
(-0.138808 0.015163 0)
(-0.142861 -0.00381007 0)
(-0.141234 -0.0240239 0)
(-0.133408 -0.0435812 0)
(-0.1193 -0.0600656 0)
(-0.09947 -0.0707978 0)
(-0.0755301 -0.0733458 0)
(-0.0500053 -0.0664152 0)
(-0.0268071 -0.0506152 0)
(-0.00899748 -0.0293996 0)
(-0.000604459 -0.00766467 0)
(-0.00143371 0.0189248 0)
(-0.011738 0.0470849 0)
(-0.0287667 0.065845 0)
(-0.0487422 0.0765907 0)
(-0.0702609 0.0805967 0)
(-0.0916997 0.0788526 0)
(-0.112053 0.0718957 0)
(-0.130301 0.0599898 0)
(-0.145533 0.0433469 0)
(-0.156795 0.0223826 0)
(-0.16312 -0.00206413 0)
(-0.163545 -0.0285485 0)
(-0.157195 -0.0548829 0)
(-0.143512 -0.0780976 0)
(-0.122531 -0.0946087 0)
(-0.0955037 -0.100756 0)
(-0.0649921 -0.0939419 0)
(-0.0358199 -0.0739801 0)
(-0.0123907 -0.0447411 0)
(-0.000904309 -0.0127414 0)
(-0.00155572 0.0252042 0)
(-0.0126782 0.0613818 0)
(-0.0309839 0.0848415 0)
(-0.0523656 0.097905 0)
(-0.0753332 0.102576 0)
(-0.0982344 0.100272 0)
(-0.12013 0.0917658 0)
(-0.140098 0.0773981 0)
(-0.157327 0.0573714 0)
(-0.17092 0.0320351 0)
(-0.179885 0.00215062 0)
(-0.183092 -0.0308682 0)
(-0.179325 -0.0647143 0)
(-0.167469 -0.0959978 0)
(-0.146823 -0.12022 0)
(-0.117909 -0.132204 0)
(-0.08288 -0.127354 0)
(-0.0472248 -0.103772 0)
(-0.0169407 -0.0650985 0)
(-0.00135569 -0.0197589 0)
(-0.0016166 0.0318503 0)
(-0.0131639 0.0764705 0)
(-0.0321325 0.104829 0)
(-0.0542002 0.120265 0)
(-0.0778208 0.125623 0)
(-0.101362 0.12283 0)
(-0.123989 0.112954 0)
(-0.144936 0.0964364 0)
(-0.163556 0.0734539 0)
(-0.179099 0.0442286 0)
(-0.190651 0.00933093 0)
(-0.197038 -0.0300322 0)
(-0.196805 -0.0716703 0)
(-0.188311 -0.112038 0)
(-0.169994 -0.145903 0)
(-0.141251 -0.166462 0)
(-0.103183 -0.166421 0)
(-0.0612626 -0.140847 0)
(-0.0230101 -0.0917539 0)
(-0.0020406 -0.0294335 0)
(-0.00162518 0.038616 0)
(-0.0132236 0.0918168 0)
(-0.0322164 0.125102 0)
(-0.0541601 0.142847 0)
(-0.0774715 0.148843 0)
(-0.100591 0.1456 0)
(-0.122826 0.134554 0)
(-0.143622 0.116282 0)
(-0.162566 0.0909427 0)
(-0.179152 0.0585993 0)
(-0.19268 0.0195456 0)
(-0.202104 -0.0253837 0)
(-0.205926 -0.0743851 0)
(-0.202149 -0.124145 0)
(-0.188401 -0.169124 0)
(-0.162683 -0.20114 0)
(-0.124337 -0.209741 0)
(-0.0776512 -0.185398 0)
(-0.0309272 -0.12598 0)
(-0.00307282 -0.0426973 0)
(-0.00161854 0.0453355 0)
(-0.0129933 0.106967 0)
(-0.0314159 0.144976 0)
(-0.0523864 0.164762 0)
(-0.0742964 0.171187 0)
(-0.0957287 0.167416 0)
(-0.116175 0.155335 0)
(-0.135351 0.135703 0)
(-0.153141 0.108698 0)
(-0.169373 0.0742231 0)
(-0.183684 0.0322607 0)
(-0.19534 -0.016842 0)
(-0.203054 -0.071915 0)
(-0.204771 -0.130319 0)
(-0.197589 -0.18686 0)
(-0.178124 -0.232683 0)
(-0.143473 -0.254331 0)
(-0.0952529 -0.236334 0)
(-0.0408858 -0.168686 0)
(-0.00461038 -0.0607082 0)
(-0.00166613 0.0518819 0)
(-0.0127842 0.121487 0)
(-0.0301988 0.16372 0)
(-0.0493847 0.184992 0)
(-0.0687212 0.191413 0)
(-0.0870555 0.186865 0)
(-0.104122 0.173773 0)
(-0.11998 0.153122 0)
(-0.134859 0.125153 0)
(-0.148979 0.0896486 0)
(-0.162404 0.0462943 0)
(-0.174854 -0.00508504 0)
(-0.185494 -0.0641048 0)
(-0.192569 -0.129187 0)
(-0.193136 -0.196215 0)
(-0.182815 -0.256806 0)
(-0.156494 -0.295524 0)
(-0.111755 -0.290616 0)
(-0.0527414 -0.2198 0)
(-0.00686439 -0.0847817 0)
(-0.00192947 0.0585799 0)
(-0.013142 0.135441 0)
(-0.0293279 0.180958 0)
(-0.0459917 0.202677 0)
(-0.0615269 0.208296 0)
(-0.0752575 0.202461 0)
(-0.0872454 0.188208 0)
(-0.0979851 0.166765 0)
(-0.108078 0.138472 0)
(-0.118163 0.103033 0)
(-0.128754 0.0598929 0)
(-0.14009 0.00840532 0)
(-0.151959 -0.0518404 0)
(-0.163224 -0.120532 0)
(-0.171495 -0.195245 0)
(-0.172111 -0.269404 0)
(-0.158503 -0.327503 0)
(-0.123495 -0.342914 0)
(-0.0656432 -0.277518 0)
(-0.0100825 -0.116262 0)
(-0.00265905 0.0656978 0)
(-0.015054 0.148721 0)
(-0.0301116 0.196049 0)
(-0.0435786 0.216634 0)
(-0.0539293 0.220302 0)
(-0.0613752 0.212467 0)
(-0.0664309 0.1968 0)
(-0.0701552 0.174732 0)
(-0.0735313 0.146698 0)
(-0.0776055 0.112352 0)
(-0.0833043 0.070974 0)
(-0.091371 0.0215627 0)
(-0.102269 -0.0369484 0)
(-0.115679 -0.10546 0)
(-0.130307 -0.183521 0)
(-0.142063 -0.267508 0)
(-0.14435 -0.344283 0)
(-0.125525 -0.385791 0)
(-0.0775262 -0.337424 0)
(-0.0144694 -0.156029 0)
(-0.00440298 0.0755111 0)
(-0.0198104 0.163037 0)
(-0.0338214 0.20952 0)
(-0.043169 0.226214 0)
(-0.0465403 0.226076 0)
(-0.0456862 0.215146 0)
(-0.0417103 0.197645 0)
(-0.0363868 0.175042 0)
(-0.0310632 0.147787 0)
(-0.0271542 0.115465 0)
(-0.025926 0.0772496 0)
(-0.0285437 0.0319295 0)
(-0.0361033 -0.0219828 0)
(-0.0491322 -0.0863008 0)
(-0.0677837 -0.16239 0)
(-0.0892702 -0.25013 0)
(-0.108809 -0.341061 0)
(-0.111662 -0.410746 0)
(-0.0843988 -0.392136 0)
(-0.0199775 -0.204077 0)
(-0.00801598 0.0882485 0)
(-0.0300149 0.17748 0)
(-0.0424218 0.219343 0)
(-0.0456035 0.228722 0)
(-0.038767 0.222768 0)
(-0.0264932 0.207812 0)
(-0.010595 0.188304 0)
(0.00628431 0.165494 0)
(0.0225154 0.139688 0)
(0.0364034 0.110368 0)
(0.046462 0.0766396 0)
(0.0512304 0.0372327 0)
(0.0491121 -0.00949067 0)
(0.0388574 -0.0657898 0)
(0.0188157 -0.134283 0)
(-0.00991553 -0.218026 0)
(-0.0461214 -0.314654 0)
(-0.0742635 -0.40881 0)
(-0.0796049 -0.430347 0)
(-0.0257349 -0.257183 0)
(-0.0146286 0.114327 0)
(-0.0452793 0.197632 0)
(-0.0517423 0.226732 0)
(-0.0434537 0.222355 0)
(-0.0209052 0.207409 0)
(0.007137 0.187306 0)
(0.0383491 0.165811 0)
(0.0692923 0.143435 0)
(0.0982794 0.120039 0)
(0.123527 0.0949067 0)
(0.143514 0.0670792 0)
(0.156666 0.035341 0)
(0.161104 -0.00187494 0)
(0.155081 -0.0467939 0)
(0.13573 -0.102547 0)
(0.102453 -0.174158 0)
(0.0518233 -0.265231 0)
(-0.00264616 -0.373496 0)
(-0.0517544 -0.439088 0)
(-0.0285038 -0.30992 0)
(-0.0256221 0.141891 0)
(-0.0656234 0.209175 0)
(-0.0480529 0.216722 0)
(-0.014689 0.195474 0)
(0.0339788 0.171794 0)
(0.0838211 0.148403 0)
(0.1335 0.127031 0)
(0.17965 0.107175 0)
(0.221218 0.0880839 0)
(0.256858 0.0688766 0)
(0.285404 0.0485975 0)
(0.305485 0.0262214 0)
(0.315285 0.000462118 0)
(0.312835 -0.0304154 0)
(0.294629 -0.0692388 0)
(0.258597 -0.121029 0)
(0.196966 -0.193208 0)
(0.11868 -0.296406 0)
(0.0177676 -0.395447 0)
(-0.0171775 -0.338965 0)
(-0.0187443 0.214597 0)
(-0.0197913 0.215337 0)
(0.0566228 0.181559 0)
(0.128652 0.140346 0)
(0.205502 0.110472 0)
(0.273665 0.0882176 0)
(0.335226 0.070975 0)
(0.388777 0.0570382 0)
(0.434667 0.0449891 0)
(0.472637 0.0338673 0)
(0.502296 0.0228536 0)
(0.522858 0.0112425 0)
(0.53302 -0.00179731 0)
(0.531033 -0.01725 0)
(0.51374 -0.0371171 0)
(0.478163 -0.0648155 0)
(0.414588 -0.108578 0)
(0.323934 -0.186718 0)
(0.173169 -0.296554 0)
(0.0429753 -0.335037 0)
(0.211334 0.129542 0)
(0.297286 0.100938 0)
(0.451185 0.0674638 0)
(0.543295 0.044311 0)
(0.618059 0.0290802 0)
(0.673946 0.0198437 0)
(0.717866 0.0138426 0)
(0.752454 0.00979957 0)
(0.779688 0.00682555 0)
(0.800565 0.00442684 0)
(0.815523 0.00227358 0)
(0.824511 0.000146361 0)
(0.827035 -0.00217703 0)
(0.822096 -0.00488519 0)
(0.807821 -0.00852453 0)
(0.78123 -0.0136925 0)
(0.734296 -0.0229001 0)
(0.658595 -0.0407281 0)
(0.498162 -0.074368 0)
(0.288347 -0.136215 0)
)
;

boundaryField
{
    movingWall
    {
        type            fixedValue;
        value           uniform (1 0 0);
    }
    fixedWalls
    {
        type            noSlip;
    }
    frontAndBack
    {
        type            empty;
    }
}


// ************************************************************************* //
