/*--------------------------------*- C++ -*----------------------------------*\
| =========                 |                                                 |
| \\      /  F ield         | OpenFOAM: The Open Source CFD Toolbox           |
|  \\    /   O peration     | Version:  4.1                                   |
|   \\  /    A nd           | Web:      www.OpenFOAM.org                      |
|    \\/     M anipulation  |                                                 |
\*---------------------------------------------------------------------------*/
FoamFile
{
    version     2.0;
    format      ascii;
    class       volScalarField;
    location    "0";
    object      p;
}
// * * * * * * * * * * * * * * * * * * * * * * * * * * * * * * * * * * * * * //

dimensions      [1 -1 -2 0 0 0 0];

internalField   nonuniform List<scalar> 
7200
(
265344.083975484
264559.740079207
257711.696321669
255811.884617118
245323.657376588
242964.572685226
230363.56456328
227594.049015385
213383.021673832
210344.667175056
195263.793415518
192112.820274145
176871.444024944
173743.369359231
158908.681053464
155905.24959291
141875.015204317
139063.562538531
126080.919600519
123499.494120782
111684.009701234
109348.260288226
98729.3278820306
96639.1260109595
87185.3551873488
85330.3161152376
76972.8134763885
75336.5231996325
67986.0772741552
66549.1317067598
60108.1986139975
58850.2730536215
53220.9025100654
52122.0899774593
47210.8877194561
46252.5144879124
41973.5684018156
41138.6480770768
37415.1411851137
36688.6245371865
33453.749192068
32822.6827409974
30020.471818964
29474.0983959792
27060.7708491326
26590.8744334798
24536.5623901622
24137.7448487486
22425.9461230074
22093.7610972906
20719.6449870582
20447.5826423291
19526.1010946071
19338.0623175748
20275.6337471181
20721.7025349826
30629.4759966793
34412.9722135505
68223.5278727662
78579.5053498367
134148.764442884
145627.989046466
186053.088486336
191347.730732169
203754.857029587
204380.583243575
202844.552462889
201905.503611893
195740.902383887
194235.005059492
186188.012059956
184406.154319434
175368.180139689
173434.538133424
163894.37411928
161896.095531749
152239.411592692
150249.028135211
140790.796044849
138865.971652949
129843.358742417
128025.623642681
119598.922761417
117914.835397564
110178.429374306
108642.342868925
101640.036865705
100257.323646936
93997.6942140968
92767.7422290558
87237.4222562554
86156.1325752078
81330.5013776962
80392.265290547
76243.8310919471
75443.0863067621
71948.2140402303
71280.7317010956
68425.5216584339
67889.6007317903
65675.8226877162
65273.5938247903
63725.7172327631
63464.7991658607
62639.3833192975
62535.2028396701
62534.1080890809
62613.2399384174
63601.8588732638
63906.603878937
66134.4893765089
66727.3950539205
70534.4723012188
71496.034458487
77272.259409904
78686.8833919512
86776.1159338085
88697.7937513355
96234.844909453
97309.1133526117
265866.587310324
265167.002539384
257653.896696217
256000.811535353
245213.31486256
243160.602013614
230174.256795073
227764.415312341
213120.476688542
210476.710086126
194946.915275553
192205.155694956
176522.516219361
173800.681313524
158547.949850485
155934.570868126
141518.414757416
139072.082486091
125739.690466173
123493.511992692
111365.240857334
109332.832758736
98436.8264213732
96618.0768642458
86920.531080537
85306.4039775277
76735.4422684199
75311.6552852722
67774.9006265669
66524.5696654825
59921.3688866575
58826.8087929663
53056.2946939752
52100.183786841
47066.3108592393
46232.4005491602
41846.9080713669
41120.417969204
37304.4439885343
36672.279291932
33357.2817443073
32808.1712280994
29936.8007175258
29461.3842351118
26988.7819771723
26579.9105137541
24475.7378089457
24128.7142812857
22377.5011408031
22088.4566342564
20688.0004803385
20451.2705855683
19514.5641422771
19350.9457630269
20148.132676854
20536.2709813906
29845.887413967
33138.0249649212
67420.5170964014
76431.574693624
136279.64903831
146268.078841616
188079.039872431
192686.072510299
204340.164231277
204884.628041363
202925.128855214
202108.033288749
195668.085105252
194357.757079175
186053.542083689
184503.092329869
175196.855526003
173514.333569051
163697.560498537
161958.796245002
152027.14883838
150295.254382677
140572.725755243
138897.876278372
129627.757094543
128046.089336335
119392.104742312
117926.72802939
109984.712993016
108648.116423069
101462.031995909
100258.890285495
93836.7032278159
92766.4838107148
87093.8311867737
86152.9674569351
81204.110030899
80387.7216754962
76134.1098565948
75437.3569526846
71854.4930309161
71273.6959196449
68347.1232209762
67880.8017802204
65612.1463249864
65262.1545005434
63676.2805505012
63449.2476379423
62603.8103296979
62513.1596591545
62512.0544994868
62580.9095789542
63592.8842888864
63858.0523818711
66138.255616667
66654.16125867
70552.6821070598
71389.3672004406
77309.5205996227
78540.4288561212
86845.6993751389
88517.8109199333
97067.6052516048
98025.8789465023
265422.375913104
264684.639675725
256347.836703836
254674.818881682
242910.508950131
240903.992898824
227019.721047605
224728.205688295
209322.169079345
206860.718704895
190734.420667671
188225.617282139
172115.582724395
169660.830478773
154132.017468193
151803.39070657
137234.159303816
135076.182385517
121683.5846157
119718.657348598
107595.952194891
105830.346779129
94983.5681137378
93412.7087990036
83791.1746023801
82403.8010851541
73923.4203572324
72704.6454583368
65264.6429285761
64198.0774737606
57692.3804092052
56761.533459401
51086.1325874275
50275.2813240454
45332.7415824746
44627.4506149139
40329.5649272429
39716.9884044919
35986.3642027289
35455.405011212
32226.7215587713
31768.222450254
28989.9623909024
28597.0791354015
26234.7452903616
25903.3383927867
23947.5472689276
23677.3099678291
22169.8485881865
21968.939357528
21102.7640235538
21016.6127061143
21457.2512617725
21690.7314901924
25313.7283156102
26460.4329651176
38878.0905218103
42502.1996124068
76020.8465369416
83576.2914005874
139332.029150021
147325.852098035
187709.214344505
191429.365928712
203304.976544469
203550.352914908
201382.270070848
200493.565894094
193696.491038974
192448.767347817
183824.976245857
182397.426066407
172803.222578415
171273.464295537
161209.049227388
159642.325580862
149519.217133532
147972.274445301
138120.642094199
136637.281279825
127296.179027189
125906.302739207
117229.716488137
115951.144043418
108024.023310617
106865.324483065
99722.066804112
98685.3895672872
92326.7106829973
91410.1868405948
85816.9496359511
85016.5932856746
80160.5737890823
79471.7369704089
75323.9221598497
74742.4279657636
71279.65692658
70802.7457989964
68013.5617135521
67640.7900888907
65531.3900700608
65265.6243329797
63866.8319236537
63715.4880876883
63091.6791538862
63068.346780438
63329.1257085886
63455.6530077796
64769.9667494122
65078.6812938354
67688.2082423746
68223.236258662
72442.0676949684
73256.0753887255
79440.8435282866
80590.1388103802
88898.3408563757
90332.3511178448
98564.5508485258
99267.4412697517
265397.82015606
264650.694840773
256087.092530348
254381.434583917
242439.440625144
240393.777989496
226368.960470363
224032.738267455
208537.212179208
206027.739575074
189866.801192553
187309.051732923
171213.521190524
168710.877393894
153234.858631474
150860.800992853
136370.67729894
134170.598835835
120872.685380645
118869.422915111
106848.441926772
105048.390027876
94304.1588874811
92702.6525332623
83180.3130229234
81765.8722243926
73378.7819849677
72136.2291181159
64782.2725470246
63694.8986892541
57267.5277528206
56318.5202313108
50713.8571481966
49887.1863964288
45008.3478412558
44289.2968380712
40048.9434356125
39424.4157109276
35746.3651455659
35205.047084127
32025.6286675648
31558.1843657063
28828.2090562868
28427.6607549533
26116.5388799558
25778.6663236296
23884.5554023254
23609.0458447242
22193.322412899
21988.4934976023
21301.8126726496
21213.9805663563
22051.0615043308
22289.0968687276
26712.5534902998
27881.6300367308
41174.582869844
44869.397346565
77646.1349761233
85348.9845213266
138640.311084272
146790.091351457
186761.350322398
190554.08105575
202756.644302233
203006.807899155
200949.828564524
200043.786010144
193277.139379536
192005.072937332
183386.711948802
181931.310652256
172339.068893841
170779.465441471
160727.183147287
159129.893147043
149035.117281431
147457.994160617
137650.697994554
136138.397212723
126854.141991575
125437.149593909
116825.51465784
115521.997611253
107663.942397465
106482.637669828
99409.515517681
98352.6129889337
92063.1208921814
91128.7159180168
85602.6047156158
84786.633629864
79995.2991114008
79293.0232730887
75207.6399773534
74614.8009891415
71212.8332486226
70726.6177141959
67997.5725755249
67617.5282774976
65568.8138120222
65297.8630574405
63961.623414729
63807.3269015421
63249.0765390263
63225.2889572958
63554.9239659992
63683.9197785051
65068.4164344118
65383.1539159266
68057.2677961479
68602.7340640258
72865.5769488219
73695.4657120657
79882.7056357364
81054.4233572932
89302.3333963767
90764.3208093909
98819.5076344942
99555.1152886763
264800.819841899
263963.73083801
254684.459401559
252787.365098493
239862.427985065
237625.370164199
222745.059129014
220249.304015436
204142.259762087
201520.394541101
185023.956386372
182402.180227834
166220.126679694
163694.693958623
148326.226924331
145960.350306289
131711.837057293
129540.771388156
116565.533566062
114603.632010707
102944.928559454
101192.183297899
90820.1475144265
89267.4425510845
80107.6619743283
78740.6707006864
70694.8825777159
69496.7987341006
62457.1183622567
61410.4811735706
55268.7582426209
54356.6274147697
49010.3772288557
48217.0566060142
43573.1350308213
42884.5989854588
38861.6384732971
38265.8604828546
34796.5386039958
34283.883455121
31318.2409863813
30881.9600662425
28394.4730167036
28031.9293620553
26040.5214706926
25756.9511754382
24373.4295918719
24194.1643040803
23735.4854735728
23742.5285260845
24893.1119693932
25276.4664270334
29190.8841995577
30233.9633988649
38398.4433046284
40319.1879277747
54397.1998366755
57360.7804753067
82467.8400775601
87462.0084383043
127830.419182931
134375.907932166
171377.109707867
176043.616782076
193270.629277541
194634.942040895
196430.501928564
195969.777908593
190586.730540718
189429.657809851
181113.543227248
179660.614901907
170051.470641552
168467.485525681
158371.818455
156755.253285243
146685.481790376
145103.608453394
135404.278718327
133901.760631969
124793.495462588
123397.562205654
115007.956048384
113733.049578859
106123.246454575
104975.017321517
98161.6993068528
97140.1899197043
91112.7639502619
90214.8193757193
84948.3534366074
84169.4030207142
79634.227259428
78969.6053448295
75138.5533885819
74584.5177173932
71438.7069983421
70993.293157601
68527.2229395795
68191.0504762014
66417.6578562727
66194.7762406846
65150.8845139194
65049.6959528827
64801.9248638277
64836.1237463055
65486.5120497094
65675.7461971751
67365.0985457117
67734.7836706603
70639.7628172496
71219.2545522757
75543.6373939486
76364.275156197
82299.1938500988
83380.8145860005
90910.9950110242
92175.2467913246
99175.2507888032
99811.5394076361
264787.62569642
263951.721969809
254450.912078797
252547.258645481
239410.531568347
237165.739206505
222097.395365673
219593.011275225
203354.49361708
200723.563398401
184159.519384119
181528.678535819
165334.942268647
162800.777961526
147462.740160023
145088.683614992
130898.593361387
128720.021316589
115819.283426977
113850.598672803
102273.475784626
100514.670474055
90225.0652492221
88666.9918684659
79586.5376219483
78214.8200287984
70243.0326115126
69040.8064393019
62068.8332310047
61018.5773346808
54938.1771684839
54022.8926835401
48732.1263579933
47936.0628597522
43342.8812387607
42651.9646066264
38676.6611585794
38078.8232887559
34656.4964516967
34142.0688174537
31226.6901982457
30788.9008536834
28362.1190837274
27998.3219484018
26093.1269415545
25808.5762129613
24570.6650765048
24390.7799859075
24198.4290633432
24205.4964669368
25818.2999046967
26202.9797955613
30807.8810259727
31854.566631307
40756.6255163293
42684.0110397927
56872.5586574111
59846.3857615876
82907.1354188432
87918.5709237199
124746.6524224
131314.771946067
167948.117728295
172630.7590704
191502.689103404
192871.718925421
195677.395291765
195215.078336297
190176.743152139
189015.669887015
180765.936451286
179307.984682401
169687.136283416
168097.674600212
157987.687814957
156365.533433589
146300.371927972
144713.029325051
135038.602830955
133530.889846372
124462.979507726
123062.219865496
114722.761976087
113443.447566706
105888.939738318
104736.7406474
97980.6343345302
96955.5931181467
90985.362490202
90084.3133069896
84874.1268834701
84092.4832766126
79612.5399019368
78945.6200827497
75169.1689800789
74613.217751965
71522.1586930577
71075.204851173
68665.0168464154
68327.6820797348
66612.2632463097
66388.6110261479
65405.3665850882
65303.8281685117
65118.9183605772
65153.2354843697
65866.0114362054
66055.899853424
67800.3038593564
68171.2671563398
71110.4082313354
71691.9035366436
76007.8563749567
76831.3314605586
82688.4397074888
83773.8001052909
91122.4270111901
92391.0498931702
99148.583474247
99782.4944753971
264175.427212303
263236.770321536
252828.530106812
250697.090106734
236288.539856387
233805.926254767
217598.532754957
214901.252252866
197855.478938036
195101.080063495
178106.546420028
175420.780069342
159125.204103777
156591.616399592
141398.025378861
139063.978420125
125181.706911893
123067.968630279
110569.342816153
108678.781038339
97546.4877947182
95870.7980973921
86033.3891102536
84557.9242385958
75914.8792712944
74621.955902289
67060.6481989429
65931.7254289087
59338.5077263488
58355.5645239221
52622.8194792686
51769.2127543392
46799.9578807828
46061.0218926815
41772.4967544316
41136.0491467371
37463.6236790905
36920.519818735
33824.2690437408
33369.5605063279
30848.7662924425
30484.6310571533
28608.339808456
28351.4830299996
27312.5788848789
27211.4324569782
27392.2466646835
27547.5218434765
29534.5961922238
30088.1611793107
34573.2150633696
35648.1661969889
43168.6955178802
44780.33053339
55186.2462521998
57113.8575539695
69188.54467857
71077.8689933256
85188.4389479134
87616.2508103563
110882.821652817
115157.703961643
146360.459901112
151337.672156046
175399.796428202
178374.112081739
187777.075991059
188293.33508085
186473.07701026
185617.007983353
178232.860569447
176810.573213255
167238.434293675
165623.429713977
155436.499002601
153797.978975579
143741.074306596
142161.62777866
132610.220807846
131131.977539427
122277.632507588
120921.288412943
112853.494651002
111627.449648473
104375.9697748
103281.447048542
96841.4346325684
95875.6662049884
90223.8697581691
89382.2007077621
84487.9239006466
83765.2571722648
79598.0425051301
78989.8720940474
75525.1320453433
75028.3254132192
72251.7336264404
71865.1678745441
69776.3205673384
69501.4268410691
68116.9748367042
67958.1825997006
67314.2385698595
67279.223653609
67432.2733269594
67531.7822662733
68556.7171840685
68803.6469549957
70787.0276222383
71194.4450175152
74223.7667757087
74802.8824037454
78953.3718114509
79710.9138552657
85029.9276319129
85963.0419165389
92319.2257296431
93356.5567237556
99014.6261902261
99531.2609418143
264144.023713697
263208.828911805
252523.08359753
250388.13588422
235682.965510009
233196.266268362
216730.824097304
214029.104677624
196809.718511768
194050.786719866
176971.869747848
174281.683428425
157975.687183406
155437.929951055
140287.096205501
137949.20810303
124143.561864189
122026.345001082
109622.876324931
107729.203247449
96699.5551915169
95021.1078097504
85286.5144346985
83808.6213888236
75264.161183929
73969.110049465
66499.9164806994
65369.1358411788
58860.9102188987
57876.349385726
52222.0342492784
51367.0227427911
46471.2086956116
45731.0566397144
41513.6694484904
40876.1744382442
37277.0155767338
36733.0179297377
33719.7664982954
33264.3096465254
30850.2154579469
30485.4809648869
28765.3626641076
28508.0831761588
27713.9219402948
27612.6090556027
28166.3295487508
28321.8602640821
30819.9379674162
31374.4139570319
36438.792138269
37515.5123201913
45487.1160387483
47101.4033238358
57544.0453148112
59474.8288886922
70968.304146077
72860.737724006
85571.1874759509
88002.9947911366
108501.631161721
112783.548649224
142374.131408641
147359.534667443
172571.233424162
175550.443912352
186460.168931464
186977.277629426
185848.411904936
184990.934044258
177782.384041435
176357.756025324
166792.819878729
165175.157484158
154974.719864244
153333.50332295
143284.270801334
141702.224976451
132183.64613867
130702.970123624
121900.263386068
120541.687154404
112537.007897794
111308.945191609
104126.335615341
103030.011631788
96660.8620155065
95693.5042217269
90112.444342177
89269.3901560566
84444.8224787455
83720.9664569071
79622.367797576
79013.1965197563
75616.433988843
75118.8097614795
72410.2530310288
72023.051107435
70002.9345013107
69727.5883821234
68412.7455669321
68253.6920053634
67679.3730395296
67644.3004991916
67864.2127723504
67963.885473639
69047.0666194928
69294.4027630248
71317.2925549053
71725.3804374529
74760.5916274472
75340.6603067315
79445.0497423216
80203.8384739394
85403.8926862896
86338.542598155
92492.7153700563
93531.7535009654
98935.4528258569
99444.7916286159
263355.896426643
262271.521462725
250260.101215
247801.600166596
231329.644194913
228521.149512584
210560.858660302
207616.746713034
189419.030164313
186521.275422003
168991.91791269
166256.299980465
149927.575245614
147414.909579155
132542.289488175
130276.390543532
116936.053331746
114918.112451281
103078.944820806
101297.348306246
90869.1192685566
89305.7507434374
80169.9583495608
78804.1080620014
70833.2118942932
69643.9465092858
62713.1960514807
61680.7973011258
55675.6783130932
54782.5548094455
49603.9888051486
48835.3118813344
44404.3889881646
43748.7488055815
40013.476578126
39464.099676381
36411.504737072
35968.804780728
33644.9455001781
33321.8386190846
31859.8692672986
31691.2801225713
31337.1663554042
31387.7767169707
32489.0779844074
32841.7765592793
35766.5016696118
36484.8284886874
41476.9210204599
42563.8315111581
49552.5990321654
50920.2430419723
59357.9776140078
60817.2825498868
69714.4269926887
71046.6190543007
79205.6167438063
80284.8038963509
87484.2793610867
88568.6325466336
99720.8844701395
101986.618719579
123647.517650407
127690.373754115
153472.526575914
157395.092881494
174186.709383786
175955.95471953
179464.812906333
179209.11980348
173852.068790483
172591.318566191
163477.510029914
161883.242382019
151774.713151764
150142.861755156
140208.198643125
138655.300891945
129355.578110693
127925.425277384
119431.925709479
118138.820335923
110500.712976009
109346.464994177
102559.171798617
101540.192597882
95575.7363203741
94686.3205958935
89508.3976678137
88742.4325578121
84314.8038158154
83666.7663391881
79958.4196379625
79424.0168329375
76412.5910905839
75989.1942570679
73663.3037229452
73350.2287570032
71710.8504990599
71509.4669414129
70570.1878112258
70483.7767904586
70269.358075807
70302.584010255
70845.1097524672
71002.9756420222
72334.9820530274
72621.2506375853
74766.6230567448
75182.2019362166
78147.3376680614
78689.3020547104
82461.1789471396
83123.3270343078
87664.3628685408
88435.3335969633
93568.4305485721
94377.4829385279
98740.4326956884
99133.2355828817
263293.706320884
262215.37655149
249808.120856635
247347.026086001
230458.403118404
227646.945470046
209357.759160324
206410.541170612
188015.955580038
185115.143702203
167510.588549838
164772.084536661
148460.274204511
145944.95767207
131150.544031985
128882.254560615
115656.018248716
113635.948437647
101928.197514924
100144.721413414
89852.7878018586
88287.7699206408
79285.598738933
77918.3074773066
70074.4680075012
68883.9479457594
62072.4923130963
61039.0043805378
55146.3064848247
54252.240734564
49182.0626311384
48412.5747520364
44091.205357232
43434.8734732897
39818.9843004968
39269.0278053106
36359.8997981143
35916.7327926638
33782.2199320987
33458.7721727693
32258.6503929175
32089.8833863939
32090.4929252053
32141.1566807777
33686.3166733986
34039.387345787
37447.0924657449
38166.1771206735
43569.4386531379
44657.4958360062
51836.6766453809
53205.7635216344
61486.7700753115
62947.6145800491
71325.508620386
72659.1061465869
80145.8931641957
81226.2188607771
87797.9734393602
88883.4706191165
98737.58235164
101005.706954053
120693.491325996
124740.612648854
150187.74847369
154114.453092504
172114.252802135
173885.364694316
178374.943160466
178118.980301013
173143.876772432
171881.796454795
162870.494389382
161274.544786768
151199.752674755
149566.179672518
139669.31102847
138114.774967873
128871.802755731
127440.141109076
119019.424940528
117724.955338897
110169.342925093
109013.877209939
102313.412244262
101293.358018967
95416.4951775291
94526.141118148
89434.6204707074
88667.8472663856
84324.6420843036
83675.9209271831
80049.9596498236
79514.9930490514
76584.1869440798
76160.3434262803
73913.5294155195
73600.124155027
72038.0350982024
71836.4390806052
70971.4522992582
70884.9501147367
70739.0643643846
70772.3253522425
71372.711708754
71530.7441470552
72902.504796369
73189.0753947056
75346.4016833077
75762.4189991099
78701.0537173063
79243.5898771823
82940.3052420527
83603.151896429
88013.4615609042
88785.2456645816
93727.2420858353
94537.1480272552
98653.3655872562
99038.331922881
262154.227247141
260849.737359382
246439.024933566
243508.394652768
224183.215085522
220948.119910715
200815.541251238
197586.689173806
178153.580161563
175120.735878585
157185.501283368
154434.18533887
138308.023562064
135861.640334481
121584.293629777
119434.366988834
106911.291045525
105034.970357119
94114.4068634077
92483.8274149514
82997.8647910496
81584.9365977298
73370.7919049304
72149.5679941733
65060.5644256967
64008.3825139395
57920.0187897514
57018.129707194
51832.82076759
51067.0600240774
46720.2490475552
46082.2343068063
42551.1573648314
42040.516788192
39355.4637698497
38983.7151827506
37239.9384150652
37035.1392252295
36395.8011564649
36402.2878265351
37072.8297801231
37338.2037671917
39502.5749719535
40053.5936733175
43786.500922826
44607.8114564318
49784.4608709558
50809.5925846697
57045.9258520854
58160.0903271471
64844.1191200076
65908.956281667
72354.1640831525
73267.3369504598
78960.5545303888
79711.4388575752
84535.8195402067
85177.0155654734
89367.8430097387
89990.5970220275
95409.7777652387
96535.284012523
109042.551142923
111662.998497077
133114.865925143
136829.662505484
157138.123923277
159807.613072991
168723.203286783
169257.828400506
167057.717637225
166141.774147822
158259.304033472
156787.948622359
147189.923322926
145622.578989376
136074.690267391
134586.075345961
125725.527863006
124371.807688051
116388.301361903
115181.876999569
108100.751627288
107038.780408073
100828.617907896
99903.6025688988
94517.0484426058
93720.8046372106
89110.4386323919
88435.6098488623
84560.3282761026
84000.9722271316
80828.5982102128
80380.3949622272
77888.5817513181
77548.8433124953
75724.8991443857
75492.4089813515
74332.060574339
74206.7062775471
73711.557166044
73693.701993962
73867.1463248447
73956.7274558536
74798.3839162505
74993.8350513982
76493.3953275188
76790.7223421844
78923.0105011462
79315.434314666
82039.7824380181
82518.4651452092
85783.1465033307
86338.4999024845
90076.0097850126
90692.3548117612
94698.0396802492
95302.2470910925
98492.6350566424
98774.0013994377
262034.625153294
260740.778905221
245735.703209257
242802.798990837
222906.257547131
219668.652193993
199149.075554703
195917.718143091
176296.901472485
173261.703941894
155294.662217117
152541.21146876
136488.037811709
134039.756383969
119897.915384108
117746.320569905
105390.852352207
103513.075787149
92772.2965942463
91140.4519449299
81834.6466237593
80420.6221097622
72381.2020215017
71159.0305374487
64238.0272460016
63185.0289241879
57260.3618711561
56357.7729939066
51337.8460080641
50571.4910946985
46401.788183884
45763.2783940901
42435.6148253656
41924.5780319719
39486.9521717488
39114.9151371087
37678.1715950016
37473.2134971708
37205.4264680504
37211.9181712642
38303.0538604588
38568.6337567807
41157.5694697277
41709.0157180816
45793.4735814785
46615.4213871869
51979.3944185525
53005.3215535058
59195.2582849546
60310.2872636461
66699.8871191253
67765.5505103157
73736.5148537033
74650.3962710284
79838.0987534011
80589.5657075165
85016.2553902616
85657.9489329988
89603.397747168
90226.6349673819
95243.9234757487
96370.3030269824
107578.409981803
110200.890596126
130376.770984919
134094.449953991
154628.778992458
157300.339454902
167106.620628864
167641.660569448
165999.434901197
165082.780711992
157439.626801223
155967.129734527
146486.993372499
144918.432903543
135461.289686496
133971.519717465
125203.572682096
123848.802127209
115964.402008189
114757.04155584
107779.190356742
106716.395131741
100610.40008699
99684.6670091524
94400.7067994704
93603.8451717738
89093.0672237222
88417.7148263582
84638.3603465404
84078.5702814563
80998.2039367219
80549.6529184174
78145.6687658133
77805.6667167964
76064.7174218333
75832.0468647959
74748.4174723414
74622.9659105163
74195.6802094094
74177.8111831242
74406.319793783
74495.970432674
75374.6409420619
75570.2437318527
77082.724851401
77380.2825683454
79495.6049258812
79888.3332292846
82561.4028435283
83040.4569706912
86217.3174092925
86773.1017188192
90384.8286296585
91001.6518914656
94839.1357711687
95443.8119992393
98420.7474140275
98695.7203264218
260180.316164148
258535.73774119
240479.42220606
236864.792583386
213693.180204166
209924.014788706
187325.549107623
183805.433760473
163305.031737986
160185.785574793
142223.129647172
139525.734321766
124040.35916469
121732.461119623
108476.889593558
106509.961146924
95194.0683901132
93519.3032686466
83870.8486243089
82445.1959454643
74231.9860594744
73019.9613279955
66056.2851529706
65030.2971280714
59178.2579329106
58318.7392164937
53488.5592812797
52784.5237042011
48935.0945319089
48385.4524940737
45525.3227933764
45140.4867499885
43325.9067933888
43127.2911696382
42448.3197714866
42462.1690466045
43009.8980287245
43254.8393027835
45074.9574681712
45548.5182128958
48594.0188618454
49265.0183846414
53358.725782741
54167.1869616166
58988.1656145107
59851.4305418427
64968.9193244482
65797.1174300162
70759.6879144934
71482.5113675502
75938.0706180145
76532.1973287669
80342.0727728252
80837.5992343537
84125.552316978
84580.497030404
87631.6192998024
88090.913072038
91097.6678896993
91571.0085870406
94944.5762912856
95584.6418699879
102280.063092869
103779.766692412
118423.677422921
121221.45102872
140168.450790283
142984.545684181
155218.963370538
156411.928512896
157649.796905901
157206.859203863
151315.693112951
150090.272477747
141585.24897153
140165.477739007
131390.836039659
130020.674474099
121857.2316265
120616.433086784
113323.228990144
112229.508364898
105839.143507213
104889.218450347
99361.2041545269
98545.9891182748
93823.1349329411
93133.1317812542
89161.3208270756
88588.3615150412
85322.6167285409
84860.2537981983
82265.6374244873
81909.0217121444
79959.4588995762
79704.9902517233
78381.0283068169
78225.8605029277
77511.6313982379
77453.0555228992
77332.5692845878
77367.3210073816
77820.4047651876
77944.0044421621
78942.6190477565
79148.9408796046
80654.9377442203
80936.2011088239
82901.7308302978
83249.0191045016
85619.6819959217
86023.7958121196
88741.8733100508
89193.0295808846
92182.1357147711
92662.0319316362
95695.2508156896
96128.4974393604
98338.1125266595
98526.8129855967
259923.633329014
258300.574799722
239333.58672218
235716.732311197
211793.924418044
208022.439098189
185026.987197877
181504.705235532
160887.852569693
157766.686524487
139868.446176952
137169.390616831
121852.745323119
119543.426777164
106509.850395692
104541.711313428
93469.9339859072
91794.1380540258
82395.092830068
80968.5626683989
73003.3473459061
71790.5766186454
65074.1368538404
64047.5173379171
58448.2710916592
57588.2233453304
53026.8172730382
52322.348365222
48769.7025488796
48219.7222088372
45694.0288410665
45308.9559328212
43868.9182549721
43670.1803841966
43396.6341531389
43410.4919524234
44369.8692744862
44614.9613087999
46810.6963993593
47284.5486185967
50613.6092069498
51285.0217269402
55514.9475983527
56323.906381455
61099.9177154051
61963.713978425
66858.2600784895
67686.9679362739
72295.2047658326
73018.4731134803
77073.0766267511
77667.5690198271
81123.7937972257
81619.625253067
84652.9213951927
85108.1461250477
87989.8165713267
88449.3930368175
91339.7942450596
91813.4262814754
95049.2292741744
95689.6888103673
101800.243624997
103300.870285374
116724.939936174
119524.435559069
137830.040350778
140647.868538443
153270.366022599
154464.065429647
156258.042542245
155814.832214039
150274.350061892
149048.175185788
140756.506636157
139335.861540814
130718.293526797
129347.288632944
121320.618995292
120079.056749644
112914.629789592
111820.235984211
105553.758217776
104603.248486301
99194.3267414803
98378.6099440325
93769.4583299572
93079.0304844276
89214.959542533
88641.6475766139
85477.1998036822
85014.5522910314
82514.2272185016
82157.3920107885
80294.2229343902
80039.5976622266
78792.6770058388
78637.4136968629
77988.700252974
77930.0883244469
77860.6967654252
77895.4698777485
78381.8333488081
78505.5091008289
79516.1857283555
79722.634550365
81216.7519890144
81498.1884699564
83426.4589074558
83773.9609360335
86082.0260157353
86486.3885621732
89117.178059114
89568.6120146075
92445.0940287589
92925.2856195915
95817.6598114027
96251.1730964258
98289.4055138391
98473.796154194
256606.148373476
254424.923611292
230770.789304741
226178.103669826
197994.637919076
193612.960289202
168632.354885188
164892.13183655
143974.112496753
140890.104712654
123681.870529555
121163.275559943
107063.470439826
105006.503197151
93442.892289158
91757.3711901194
82262.1804300236
80877.7376878
73096.6982387006
71962.3573336965
65642.105142609
64724.1540612431
59695.7653925109
58975.692447579
55140.0453344433
54612.3867988767
51925.2481392394
51593.9801720033
50045.7395444184
49918.0618723579
49506.6004619972
49584.8203066706
50286.2103179111
50560.4440095299
52303.9078876459
52748.3605333604
55398.6424029347
55971.9584121144
59320.7108240327
59968.9867223036
63741.5316748232
64403.9746065248
68290.9584158451
68910.1149659159