/*--------------------------------*- C++ -*----------------------------------*\
| =========                 |                                                 |
| \\      /  F ield         | OpenFOAM: The Open Source CFD Toolbox           |
|  \\    /   O peration     | Version:  4.1                                   |
|   \\  /    A nd           | Web:      www.OpenFOAM.org                      |
|    \\/     M anipulation  |                                                 |
\*---------------------------------------------------------------------------*/
FoamFile
{
    version     2.0;
    format      ascii;
    class       volScalarField;
    location    "0";
    object      T;
}
// * * * * * * * * * * * * * * * * * * * * * * * * * * * * * * * * * * * * * //

dimensions      [0 0 0 1 0 0 0];

internalField   nonuniform List<scalar> 
7200
(
245.297097513163
245.061453557869
243.040577331434
242.467890217596
239.31267600485
238.589783120125
234.709609280214
233.839655866176
229.309629729683
228.317646080228
223.279555907157
222.197495909362
216.806424254072
215.66579156803
210.064873890475
208.893354138957
203.203631868954
202.023940086443
196.342132032641
195.172014586774
189.572099457215
188.424861032827
182.961207847473
181.846422628139
176.557307195343
175.481543840011
170.392502271882
169.359986417429
164.486786744088
163.499974843599
158.851162398424
157.911227784166
153.49029656099
152.597546130896
148.404865258015
147.559117707791
143.593828529286
142.794799936434
139.057021598299
138.304808055133
134.798800831544
134.094633534107
130.83420422991
130.181777347918
127.200462087125
126.60844105596
123.979465896905
123.466406834013
121.336195584157
120.93898182342
119.566000011079
119.338540481185
119.621565293736
119.811031828444
126.906421233024
129.526317812464
153.475803637788
161.143998362482
201.10303283595
209.995463728178
242.383649100513
246.90217433314
259.26831000458
260.064242126613
260.67393874208
260.169668015999
257.183725410365
256.397979210154
252.612306997597
251.772150560999
247.742778820327
246.874423048584
242.667507874817
241.770048182899
237.409962408107
236.488124054656
232.026180362067
231.09150841257
226.597586698037
225.664517128008
221.211567307754
220.294389181651
215.949020128363
215.060387144022
210.879303850181
210.029819956639
206.059815321896
205.258204822662
201.537936495742
200.791488307453
197.354032128061
196.66915780557
193.544870238097
192.92771055707
190.147259971851
189.604330761295
187.201947848972
186.740848709184
184.757957285951
184.388186788826
182.877628003799
182.611557095119
181.642594209095
181.49663815805
181.160704625409
181.156664984436
181.573225955521
181.739596665272
183.059484500975
183.431848970565
185.830911636335
186.448940101413
190.088923832385
190.982411967887
195.972751881151
197.159734628067
203.16705002676
204.443396356466
208.953702407645
209.529175805574
245.454103326289
245.243921594283
243.031489881605
242.533177039635
239.292681085713
238.663669538005
234.671872533141
233.914899052062
229.253493830916
228.390338052474
223.207270133258
222.265736126896
216.721373047154
215.728873125832
209.970591180653
208.951215464494
203.103312271532
202.076825817432
196.238444712455
195.22028918599
189.467162752354
188.468914972963
182.856638833219
181.886629595347
176.454299480944
175.518244378725
170.291908447353
169.393484338656
164.389194967646
163.530539288583
158.756963368653
157.939097072067
153.399739902374
152.622930029685
148.318107511862
147.582196304575
143.510978039644
142.815718447977
138.978180705871
138.32365634273
134.724105777097
134.111387944393
130.763881241844
130.196184351365
127.134922490663
126.619786606831
123.91951955012
123.473090926966
121.283547865633
120.937919837343
119.53117429737
119.333254696884
119.580891803291
119.745752518832
126.380161018686
128.6598143907
152.844584875648
159.516919233649
202.319794640896
210.057374905686
243.680395821693
247.61210494484
259.649378051465
260.341943307714
260.645548033315
260.206766414934
257.078076401502
256.394374232143
252.51145957903
251.780413373336
247.653338248768
246.897754925863
242.58371026175
241.802802714107
237.327225752864
236.525105574767
231.942726346801
231.12943925825
226.513524486007
225.701631677592
221.127890181365
220.329825011802
215.866976518362
215.093749363087
210.800086363704
210.060924048069
205.984441820546
205.286935631958
201.467230184089
200.817722435264
197.288646023878
196.692715607798
193.485327220302
192.94831741657
190.093994192949
189.621574626726
187.155340647418
186.754123966921
184.718363724431
184.396614932033
182.845391073437
182.613874513232
181.618043066912
181.49104217438
181.144137146305
181.140622129248
181.564880019065
181.709644340093
183.059617280918
183.383623169311
185.840329339577
186.378095099291
190.111250505956
190.888702279028
196.006498981767
197.03932953041
203.295600610147
204.40618918727
209.399387411953
209.912685547624
245.38861389613
245.18435385281
242.809654903026
242.335288265715
238.901938940341
238.313211940711
234.125971921107
233.42594370525
228.574834799167
227.783487017706
222.423106836412
221.565788358576
215.860398207567
214.961563167867
209.059347741693
208.140038437406
202.164127046087
201.241334471379
195.288856680372
194.375707178901
188.520255096935
187.626513896416
181.921778442945
181.054435695204
175.537989501044
174.701825250195
169.398613260484
168.596701451417
163.522095447293
162.756239384716
157.918667608977
157.189774441046
152.593027666834
151.901441552813
147.546846667207
146.89268285505
142.781472085914
142.165013842993
138.301446998602
137.723696165599
134.120020118179
133.583612157198
130.269128144733
129.780106526255
126.818491420092
126.389899275179
123.913289363493
123.570749673507
121.869747637373
121.664042472199
121.512585322207
121.628914053783
124.901478049052
125.938539043149
135.506987436179
138.066922515618
160.041752419426
164.493356006638
200.435536869116
205.708191635855
235.968817847849
239.481780050896
252.974622084271
254.064384167037
256.244376877199
256.165948202029
254.120857293288
253.691957540678
250.390399512324
249.845780658817
246.029201389757
245.418522967992
241.260460806166
240.601393305551
236.196595011098
235.504935532906
230.950464453119
230.242354051142
225.635472166347
224.925913890597
220.354959999333
219.656876380967
215.196927339132
214.520964889508
210.23355867085
209.588319582624
205.52334376893
204.915806051489
201.114307154954
200.550308374324
197.047598474334
196.532330899382
193.361153572632
192.899658984738
190.093392052438
189.691066233087
187.28705332134
186.950181140351
184.993331410973
184.72967511296
183.276451392525
183.09590401364
182.218675882551
182.133950629022
181.925342881772
181.952588197834
182.528566371951
182.68755983143
184.186689523611
184.500052261215
187.071748304591
187.561154871041
191.34112384444
192.024020709638
197.074334822116
197.950485800629
203.990881596536
204.8969525308
209.680357214613
210.091999931243
245.389189653973
245.181766458418
242.76494033866
242.281318936821
238.817686674259
238.217473770427
234.004714044544
233.291028467923
228.421802007014
227.615015244814
222.245268359987
221.371223831006
215.665074958623
214.748703890906
208.853201381421
207.915956601766
201.952687817873
201.011891810134
195.076429868917
194.145465068161
188.310029390622
187.398851541509
181.71601841213
180.831754042453
175.33824835886
174.4857707701
169.2059370448
168.388380153679
163.337211109525
162.556413402735
157.742164676412
156.999051000324
152.425558031649
151.720479259982
147.389378807637
146.722452436801
142.635669912857
142.007184736693
138.170327838303
137.581305243135
134.009185552474
133.462312417555
130.189128755216
129.6905664575
126.78928416099
126.352330299489
123.974174758204
123.624952211705
122.111661199337
121.901942782143
122.154921307653
122.273519581254
126.36117752392
127.418471296941
138.108662814772
140.718541533798
161.937476110432
166.475929277123
199.224700877661
204.600223709865
233.822399491529
237.403898635049
251.461013825424
252.572036871069
255.2895875237
255.209628726334
253.477747805338
253.040480334798
249.922726275535
249.367482055802
245.664269587008
245.041676994744
240.958345811867
240.28642008294
235.936552943885
235.231399376732
230.722617173275
230.000691729273
225.435580134782
224.712178569381
220.181451836771
219.469748796211
215.049386063271
214.360235769459
210.11203955331
209.45421202535
205.428126241854
204.808735628205
201.045856860209
200.470854616227
197.006622648272
196.481302342584
193.348691225268
192.878193003042
190.110907511492
189.700732424447
187.336508188831
186.993063722893
185.07719915124
184.808398990311
183.397607244345
183.213537435032
182.380033782249
182.293655561987
182.129008104605
182.156784969399
182.774136173504
182.936231552286
184.468205430584
184.787681790269
187.373186469729
187.872141225647
191.632169449829
192.328389447784
197.318288555866
198.211533002509
204.135021176433
205.058769309055
209.720450698067
210.142216935897
245.23948079158
245.008459764238
242.42327157103
241.888816645161
238.175148998316
237.520548689143
233.067844322786
232.303291294291
227.232201578342
226.382323448435
220.861843369632
219.95413549251
214.14984566078
213.209093516421
207.262718564592
206.309268199236
200.334184915795
199.383893376221
193.46700292829
192.531779644586
186.737422406531
185.825915627765
180.200109605357
179.318372625472
173.892750706358
173.044834099186
167.840101711886
167.028562425279
162.057495232643
161.28383755171
156.553963578664
155.819045876831
151.335272781614
150.639723535511
146.407323689091
145.752032860509
141.780731749578
141.167576539931
137.478210537628
136.911344332365
133.547919765099
133.036207138682
130.089720098463
129.651176486345
127.314381939437
126.986036165861
125.684304438437
125.558297090184
126.157819705683
126.469281028021
130.250947254067
131.347248124878
139.313671051039
141.204277473187
153.58940553733
155.889825417526
172.023181097236
174.731555996126
196.094635853349
199.484966966718
222.256838316638
225.44288577804
240.628339337101
242.365657902818
248.239290189049
248.665812072085
248.967283060327
248.789022060009
246.693383318897
246.270123285556
243.099678973526
242.551281958604
238.784823109198
238.16008750226
234.034171368596
233.363828689325
229.041961422525
228.349566871698
223.959077904812
223.263246437592
218.904932484878
218.22029836037
213.973667530088
213.311700292399
209.239539472484
208.609304005837
204.761919615019
204.170763829699
200.589861226622
200.044030416746
196.766247664803
196.271439715178
193.331614402284
192.893496121424
190.327769816149
189.952474005509
187.801323462835
187.495938329158
185.807152950511
185.580196060516
184.411657240051
184.273484071941
183.695299421163
183.658324783758
183.753319037425
183.831796301739
184.692754083778
184.901764582882
186.622758847736
186.975836171629
189.638130795567
190.144673828742
193.796899591337
194.459482551139
199.099189680235
199.906108175594
205.211714248927
206.014081047839
210.075102039859
210.431797844062
245.236319917307
245.005588694168
242.361280829724
241.8249780466
238.052608646796
237.395745082348
232.885734322397
232.118537881348
226.999683221765
226.146866671063
220.591495640367
219.680649398334
213.854446963361
212.910442204814
206.953610944213
205.99686406106
200.020672315045
199.067095179191
193.156311411747
192.217854629676
186.434925963029
185.520267684797
179.909658593395
179.024873041972
173.617024672589
172.766176426511
167.580960188579
166.766615036246
161.816330283489
161.039997711019
156.332081533808
155.594622882418
151.1343778367
150.436423755954
146.230251181069
145.572694709768
141.632677391823
141.017402221731
137.368907573556
136.800081450292
133.495665260492
132.982183407442
130.129697205263
129.689637345551
127.518981865988
127.189500849587
126.202097081578
126.075654067787
127.230596651683
127.543134839507
132.118957278838
133.219048567548
141.947690063667
143.844833184466
156.240859147044
158.549232640088
173.575942400925
176.293681401375
195.315472625701
198.717525677891
219.997459795561
223.194522892952
238.785836606537
240.529161884065
247.137895589971
247.565892155936
248.288793690911
248.109916360072
246.207608684042
245.782885245491
242.703248786601
242.152955710191
238.437256144493
237.810360538334
233.721561743428
233.048901380245
228.76095613169
228.066167653458
223.710139733584
223.011902455953
218.689610230606
218.002609010068
213.793586088951
213.129330125117
209.096126178436
208.463711697015
204.656437633452
204.063237949847
200.523559585663
199.975841586852
196.740541829118
196.244023100126
193.348254861841
192.908621803954
190.388968503093
190.012375121689
187.909799438652
187.603358447676
185.966031020425
185.738289435753
184.624103427646
184.485452531147
183.963704853483
183.926602377699
184.077769192741
184.156517789164
185.068494272332
185.27822741716
187.036593624395
187.390891699493
190.064343837276
190.572638223415
194.196313812713
194.861187627496
199.418901245176
200.228609630053
205.401664755485
206.206805706601
210.15420172563
210.517482897452
245.063852651866
244.804340317814
241.908618855896
241.307777613798
237.169057474899
236.440835167229
231.57004474941
230.737487910114
225.314381794342
224.40934561243
218.627210397571
217.679240470119
211.704334642635
210.737343888353
204.700538295061
203.732773133952
197.732692025184
196.777621307306
190.886465844069
189.953772051745
184.223017528631
183.319469801191
177.784772016194
176.914951929122
171.600265056869
170.767171700847
165.688285915234
164.893860230283
160.061649803894
159.307263416372
154.731042063357
154.018027209834
149.709685973687
149.04005551837
145.020194174254
144.397787175444
140.705996538462
140.13842953365
136.85228620856
136.354470764218
133.627213010578
133.228786343646
131.359258240933
131.124097428398
130.646034802065
130.709590763225
132.38247446816
132.945665686349
137.448563278674
138.607822334622
146.059817442634
147.628788258798
157.370311583509
159.044692910177
169.4528594033
170.991663886044
180.814317321511
182.170939206545
193.017356622431
194.785497531304
209.589902967727
212.096423436262
227.36790600805
229.602668865259
239.378531033042
240.477250161955
243.881593358684
244.06335929282
243.458365314109
243.174170638566
240.59812708297
240.098760307092
236.58532992733
235.982447672928
232.014256190152
231.361843425422
227.191474263707
226.52025968775
222.301507131077
221.631537504043
217.469295303939
216.81484207592
212.785902755925
212.157702358095
208.321080716753
207.727580372453
204.130747112726
203.578934177505
200.262242451039
199.758273508592
196.758467282389
196.308187315573
193.661373136457
193.270764877457
191.015002912459
190.690577844669
188.868090362579
188.617204875473
187.276019136651
187.107060641795
186.301660282739
186.223996376446
186.014239173806
186.037760033683
186.485088353618
186.619161754884
187.779062661809
188.030758212094
189.941935338032
190.314027933036
192.986778888138
193.47640899636
196.88896731309
197.48807137976
201.582673279514
202.27586394827
206.773551676866
207.444549328182
210.810956320744
211.108026171041
245.053956278703
244.795495716423
241.823564711946
241.221734664733
236.998196147342
236.268775403392
231.315942616063
230.48201563703
224.991649363905
224.085123762919
218.254406192828
217.304876190188
211.299377575412
210.330795443346
204.2787955689
203.309437755565
197.306498350805
196.349855871961
190.465303562934
189.531074835376
183.813964991516
182.908930294553
177.393040096476
176.521788545498
171.2297552115
170.395290832794
165.342176720271
164.546443648066
159.743084109702
158.987456227645
154.44404583202
153.729857569141
149.460529895932
148.789797429012
144.819611064282
144.196179769566
140.573100558427
140.00459950795
136.822073647339
136.323438947555
133.765300754846
133.366218396696
131.783149960397
131.547602143445
131.527214094222
131.5908746495
133.883464010458
134.447582073075
139.594184803803
140.755351653698
148.586060622795
150.157613496016
159.720731797424
161.397868655345
171.202891900408
172.744228795439
181.740553561905
183.099408041117
192.673421200923
194.4444719413
207.866311889843
210.376957341964
225.48549267844
227.723933287424
238.204796900592
239.305324192825
243.279065518536
243.461130585077
243.1101058952
242.825443520156
240.333645670261
239.833457085912
236.344598694013
235.7407242756
231.784547240992
231.131060799833
226.97591470215
226.303595507601
222.107073577884
221.436001381073
217.302860238251
216.647329975811
212.653233389302
212.023999161362
208.226841827542
207.632364759051
204.07879938413
203.526078329734
200.255984067183
199.751185742475
196.801127573105
196.350106580036
193.756216385316
193.364965301859
191.16540380344
190.840444828947
189.077422874895
188.826124505258
187.547267586397
187.378031036354
186.636625518477
186.558833800605
186.412201268805
186.435760836988
186.940847720402
187.075141766417
188.280507770214
188.532617536152
190.467690410637
190.840395358847
193.505337032532
193.995772925579
197.35941294345
197.959502956363
201.959026218614
202.653357672042
207.013993501123
207.686095414037
210.951934103878
211.260567621324
244.828265657526
244.52868599229
241.192000241721
240.499204359714
235.764215858961
234.937160591432
229.497010552264
228.57717974186
222.690486078997
221.71816993398
215.602625483829
214.60854626891
208.424104490645
207.429908148303
201.288808476106
200.309357593171
194.289015212267
193.334391922797
187.487611389289
186.56457202275
180.927002542597
180.040016432083
174.635717910104
173.787745817446
168.633682045961
167.826825478453
162.937034040726
162.17318681003
157.563501116692
156.845148166658
152.539624127495
151.870965843549
147.911811175116
147.300542633855
143.764854637895
143.225325020007
140.253092712078
139.812566032683
137.646359426295
137.357725745375
136.3775275565
136.336022338708
137.032502764224
137.363462188255
140.162415853565
140.931349393351
145.909958441242
147.020525417045
153.76272289216
155.00901705949
162.668662277961
163.885091106228
171.459574467857
172.553467650875
179.403748287339
180.325871622713
186.081414820981
186.832910351551
192.210465429099
193.090548788602
201.599634710247
203.236287024927
216.102520744858
218.312494188966
230.468671749618
232.15762250886
238.930282814429
239.590164469747
240.970840864179
240.892591935868
239.067640089715
238.626302809912
235.317902412982
234.7241504616
230.811912643586
230.161821288377
226.050151345994
225.387834553375
221.273823598465
220.62196912512
216.615339009972
215.987512611968
212.158830040461
211.564367705806
207.96499561471
207.411102818887
204.082399296137
203.575190142257
200.553486034053
200.098596592638
197.418366976775
197.021372972362
194.71747310867
194.384186339125
192.493391185115
192.230038333451
190.791803277336
190.605046744508
189.661190025155
189.557917363676
189.150770038459
189.13756157559
189.306128798396
189.388346213722
190.162280335199
190.34281815742
191.734907515819
192.01292627232
194.012001263265
194.382195066574
196.950773449055
197.403897506615
200.483881602506
201.008904382883
204.525902669878
205.107250395091
208.823102584323
209.369298641604
212.096881922206
212.334430029588
244.808949819746
244.511206798642
241.06867535727
240.375148574586
235.521758278529
234.693830466473
229.145696090668
228.224894857404
222.254013993118
221.280672053135
215.107043083694
214.111915113737
207.892851306407
206.897606085459
200.741177829958
199.760693624898
193.740143285298
192.78451286685
186.949077092703
186.025063918271
180.407654928127
179.519733045959
174.142609690923
173.293742986458
168.173115797181
167.365407994805
162.5158132436
161.751160152949
157.190614438589
156.471503625133
152.228826082328
151.559462362907
147.68589863164
147.073985201167
143.662912728383
143.122813905953
140.34149551962
139.900504083929
138.02827452721
137.739336337331
137.182711253803
137.141162247946
138.368996129252
138.700304715963
142.04123191175
142.810976677554
148.174448805584
149.286187431184
156.079746282962
157.327355292476
164.681543130665
165.899255293139
172.980666274885
174.075713516825
180.385878281657
181.308974458509
186.610609525809
187.362897885271
192.315358657035
193.19637050578
200.842866296196
202.481245281481
214.648806909988
216.861111879337
229.273074486986
230.963807091769
238.322918901813
238.983496733251
240.719417575854
240.641086094809
238.944922012742
238.503119121458
235.224419333138
234.630040972572
230.721043619801
230.070266417254
225.962846469694
225.299830931882
221.198964436955
220.54642225618
216.562762890771
215.934274134991
212.137271691957
211.542182198664
207.981774823357
207.427297669818
204.143654144517
203.635909884232
200.664504643898
200.209135293452
197.583846868083
197.186434034411
194.941629448407
194.60799106083
192.779855919009
192.516225229698
191.143253453105
190.95629989186
190.07864274676
189.975261132471
189.632510581643
189.619288183827
189.846327645256
189.928631800076
190.749531840369
190.930260130258
192.351151497691
192.62946356439
194.632542942407
195.003127300724
197.545656797048
197.999258901157
201.020644825426
201.54622150561
204.972237221173
205.554198269093
209.147479488777
209.694251783704
212.341852442878
212.599846897605
244.490299324508
244.13239519129
240.162564294158
239.340416255533
233.792485359949
232.83518097068
226.666858108936
225.639500395951
219.193372481679
218.143189992955
211.64715246759
210.603303872102
204.196596141639
203.176242363958
196.942202039202
195.955336127154
189.943919954732
188.99636226778
183.238093652831
182.333312636569
176.848292464613
175.988614795511
170.793304950617
169.980872520233
165.094458923865
164.332171966523
159.783944196362
159.076653938614
154.916162515726
154.272540520146
150.584380983483
150.020140554426
146.943085250354
146.486550394364
144.231837292143
143.932020847103
142.786986171152
142.717383346929
143.003406608056
143.241307128594
145.191736611215
145.761367335744
149.362626943685
150.188592224747
155.11954307855
156.062354495471
161.764774900623
162.705968450952
168.537255876696
169.411612299407
174.880980368026
175.655107693162
180.537051562818
181.202820368303
185.450784944983
186.029383665762
189.74835150296
190.274005571582
193.724484698801
194.280121990905
199.126295130022
200.104218249815
209.225610135574
210.968530581724
222.917443096855
224.815594007058
234.067368806234
235.191770172016
238.855567637469
239.066973742518
238.34465382474
238.009699396432
235.051582913143
234.482506224635
230.64917167888
230.002618897037
225.928850997519
225.27234643775
221.235248439036
220.598321202736
216.726595994412
216.123641991518
212.486033473452
211.925400651229
208.566031709373
208.053634353576
205.006511903953
204.547335674256
201.842681342243
201.441450707118
199.108636588837
198.770114155126
196.838948626178
196.568024282676
195.068928654776
194.870530207639
193.833652705579
193.712460646732
193.165601512521
193.125546117686
193.090822731347
193.134381780108
193.623836576515
193.751232488538
194.762126862044
194.970646305662
196.481770489427
196.76550517597
198.736432603512
199.086723513312
201.461616486344
201.868354936041
204.584071758153
205.037042894884
208.019028853768
208.501719963768
211.534085611056
211.972215819684
214.136480655814
214.319580516613
244.455914033886
244.101052770288
239.981971269151
239.159185308586
233.452739906125
232.494692724263
226.193618371334
225.165463509911
218.622800691348
217.571803343961
211.013418673071
209.968760133521
203.528335977722
202.507190486102
196.262315357755
195.274683715708
189.27049143877
188.322198521897
182.585696976918
181.680213922052
176.229500457523
175.369155746453
170.220522306772
169.407459492992
164.58238505625
163.819506624438
159.353082407845
158.645243348723
154.597848615717
153.953727220305
150.427421897767
149.862743662704
147.01976870661
146.562879615631
144.635957612704
144.335908533783
143.613978129468
143.544321298951
144.312054452472
144.550139565024
146.961761544138
147.531834257117
151.464147475098
152.29075363998
157.31846488971
158.262007853822
163.804044719332
164.745968561515
170.251146714406
171.126181568639
176.217365219505
176.992093206301
181.510529696713
182.176815086205
186.12890111343
186.707948781116
190.228184713105
190.754246647766
194.090982291942
194.647050714697
199.16972249195
200.148404402843
208.5647614312
210.30903424595
221.968030936136
223.867654661519
233.462953375792
234.588227188223
238.64250763163
238.854077771119
238.325739040133
237.990524713646
235.096685838087
234.527167591018
230.710411891924
230.06335743619
225.997530392855
225.340516437402
221.316784804687
220.679363363159
216.830234764207
216.226812916631
212.621127136087
212.060059307076
208.740907858795
208.228112923122
205.228284065829
204.768751551646
202.117324670032
201.715782711626
199.441040160303
199.102255059922
197.232813482135
196.961678922742
195.5264482512
195.327895862539
194.354955174055
194.233669079743
193.747986341079
193.707899866421
193.727906476372
193.771499323515
194.304831378313
194.432326139501
195.471570420078
195.680251658314
197.200048929008
197.484003771257
199.441186807251
199.791749515129
202.129784378903
202.53683842551
205.193649853689
205.646972460243
208.549011810274
209.032077450449
211.960999663778
212.399469826842
214.514668133376
214.729596801407
243.995794350162
243.553559692414
238.691651602458
237.693364240968
231.069416894627
229.949838356059
222.891481784022
221.741131837122
214.656227945477
213.523547897658
206.621571584426
205.529691311351
198.911926886322
197.871275715388
191.584572739358
190.599557622806
184.665997955434
183.738489429278
178.172764507294
177.304142738174
172.125197809826
171.317938022818
166.559025801902
165.818468112707
161.537686691606
160.874428275057
157.1650456416
156.59824842888
153.596099893727
153.15748093075
151.041373561179
150.777126924027
149.752324912973
149.715318401003
149.962233397294
150.187018704328
151.77477722807
152.245272972314
155.062329652042
155.704644917657
159.466491507413
160.184300801964
164.499117803331
165.218054215588
169.673320720378
170.352517511286
174.626771029443
175.245678853037
179.171434275717
179.722279799172
183.256139283456
183.74691336067
186.93488068023
187.388742678811
190.358245340453
190.803817006955
193.698670484652
194.152166289147
197.05903209047
197.529339790867
200.906301704919
201.55072297866
207.504888371403
208.712835016336
218.502705407452
220.204611199356
230.155578009346
231.532046261898
237.086397926049
237.5985615595
238.219235033596
238.043941709117
235.681841006019
235.172573343355
231.55638417833
230.931538162205
226.962583784464
226.320879946449
222.392641699748
221.775423042152
218.056282611701
217.481393808772
214.048526043184
213.524551438051
210.419091774112
209.951076041175
207.200435687433
206.792171164037
204.418988008678
204.073887914198
202.099311838476
201.820659119268
200.264988727308
200.055866497789
198.93770307486
198.800725119551
198.135109738975
198.072010232194
197.867834290826
197.878980740054
198.136053146992
198.219981406035
198.926369237864
199.079480381004
200.209934569493
200.42649600516
201.942802286221
202.215331400904
204.068983344867
204.388975921419
206.525726934483
206.884443811464
209.248025816871
209.636344216522
212.152741956524
212.552389174878
215.013979192561
215.363197084496
217.057943309154
217.193992866012
243.941658856413
243.504048144501
238.434461726223
237.435559923343
230.601334183858
229.481066549725
222.260398745118
221.10934076299
213.912797429371
212.779420222067
205.809204898544
204.716652578062
198.06661764319
197.025325956131
190.736289862261
189.750668473326
183.840903935591
182.9128245321
177.396339039579
176.527182637659
171.426176529382
170.618419877599
165.974034146042
165.233020646914
161.116057416219
160.452390767092
156.971788264857
156.404642190997
153.70884682676
153.269957895781
151.537221449678
151.272812169908
150.685525444374
150.648496155062
151.340264339941
151.565188001322
153.540487324067
154.011272656331
157.086963812265
157.729674420043
161.566348008076
162.284599111027
166.48971524596
167.209094160352
171.43261935456
172.112234188045
176.110418107007
176.729706865589
180.385706625409
180.936891191812
184.237967166032
184.729043312487
187.743327220381
188.197468568985
191.055047671412
191.500893585275
194.330481093856
194.784256022983
197.652159960158
198.122757132834
201.41400501029
202.058822922433
207.609739013532
208.818429144202
218.094541554232
219.797494861512
229.715300873427
231.09261633601
236.926518784492
237.438997652361
238.282885653161
238.107484436428
235.851753295775
235.34217218115
231.7708147705
231.145584164457
227.201247232935
226.559148429088
222.654002247388
222.036403694478
218.345813507643
217.770570863236
214.373626538907
213.849329429757
210.787007235198
210.318703440678
207.617437025992
207.208921217614
204.890018647973
204.544706145933
202.627739122536
202.348914893829
200.852302114973
200.64305117166
199.583115680076
199.446053415451
198.835100616577
198.771962272333
198.615738190888
198.626891500705
198.921859670638
199.005839587148
199.736909943831
199.890115326193
201.029584255904
201.246278984162
202.754657076666
203.027353931796
204.856267569182
205.176457099728
207.272927950405
207.631865616014
209.941039725596
210.329597133478
212.777677014839
213.177570214262
215.55395665145
215.90338948543
217.583184517613
217.763603712277
243.302734034155
242.743785540884
236.798662270516
235.559571476674
227.579266595974
226.24809948314
218.10991055339
216.807036929868
208.961309487653
207.72947528369
200.35336382754
199.207252140984
192.377504211931
191.321030668848
185.072322989612
184.105835982185
178.461724818642
177.586799402727
172.580126835641
171.803186379475
167.487033504286
166.822117671373
163.273881798382
162.744448640695
160.065097081218
159.703073566232
158.006480328632
157.84497103166
157.227068119624
157.285028969728
157.774610859439
158.039857760367
159.559144852422
159.9838920817
162.351100762622
162.868416325799
165.836308947056
166.386181117248
169.684054772776
170.227823393719
173.603573445226
174.120717418498
177.389401566177
177.869286424454
180.935615147505
181.374914509349