/*--------------------------------*- C++ -*----------------------------------*\
| =========                 |                                                 |
| \\      /  F ield         | OpenFOAM: The Open Source CFD Toolbox           |
|  \\    /   O peration     | Version:  4.1                                   |
|   \\  /    A nd           | Web:      www.OpenFOAM.org                      |
|    \\/     M anipulation  |                                                 |
\*---------------------------------------------------------------------------*/
FoamFile
{
    version     2.0;
    format      ascii;
    class       volVectorField;
    location    "0";
    object      U;
}
// * * * * * * * * * * * * * * * * * * * * * * * * * * * * * * * * * * * * * //

dimensions      [0 1 -1 0 0 0 0];

internalField   nonuniform List<vector> 
7200
(
(321.439569232236 -0.719173602795508 4.1056613341295e-17)
(322.187031824205 -0.769682752278862 -2.19053161316392e-16)
(328.534119800362 -0.971565908248916 -6.55567837821276e-14)
(330.315742912285 -1.02195160864866 -1.07076270211948e-13)
(339.912433621046 -0.941913668786271 -4.37843591301288e-13)
(342.069626127431 -0.917419021524541 -5.50764845960032e-13)
(353.360246100514 -0.470681812772625 -3.37947493532244e-12)
(355.83925289994 -0.392428011734769 -4.78694733164683e-12)
(368.418557738918 0.332107384277589 -1.33496290552341e-11)
(371.115065888849 0.451755990707099 -1.55677955187274e-11)
(384.468716288194 1.37615152825656 -2.38035662379278e-11)
(387.277898541793 1.52497285794261 -2.53413626721218e-11)
(400.941992620486 2.57203670366954 -2.9539136152192e-11)
(403.776822525215 2.73796491476738 -2.96863607989243e-11)
(417.388471259294 3.83809034916416 -2.96497911355985e-11)
(420.184039434265 4.0105407482095 -2.9772069381852e-11)
(433.483820858811 5.10731199763534 -3.14076901414867e-11)
(436.195382088248 5.27792235963639 -3.16026592634792e-11)
(449.011242165973 6.32962422972743 -3.16185681729827e-11)
(451.610222360117 6.49234248387181 -3.16888150758901e-11)
(463.837324278268 7.47071047692402 -3.29190562979702e-11)
(466.307239309787 7.62151807339062 -3.30580457146011e-11)
(477.889660984361 8.5092990344543 -3.29674704095281e-11)
(480.222655063725 8.64580226670235 -3.30062697101615e-11)
(491.138648905404 9.43409902691102 -3.3730527253841e-11)
(493.332792684657 9.55511667117656 -3.37399077705366e-11)
(503.583589596356 10.2409822710901 -3.20435865424484e-11)
(505.640860111137 10.3461870992745 -3.13575625125064e-11)
(515.2424169009 10.9306342771497 -2.88684402714614e-11)
(517.167219570653 11.0202630110368 -2.83653157182486e-11)
(526.144198975593 11.5066894471986 -2.65693377822365e-11)
(527.94229160137 11.58131456291 -2.6234163253114e-11)
(536.323620077339 11.9742824951762 -2.59167380305405e-11)
(538.001309447937 12.0346522042397 -2.61672293898742e-11)
(545.816714016745 12.3389980777991 -2.73312850973357e-11)
(547.38020013844 12.3859470413183 -2.74628784980429e-11)
(554.657091416379 12.6061864384946 -2.66372045730656e-11)
(556.11184310926 12.6405785020231 -2.62309798471075e-11)
(562.871771169729 12.7805883490508 -2.48260914498533e-11)
(564.221739628961 12.8034120264443 -2.45753885030981e-11)
(570.475161842382 12.8667461001929 -2.43877726866122e-11)
(571.721466785335 12.8795245006058 -2.45971708569046e-11)
(577.458161916643 12.8708345278941 -2.5526989400797e-11)
(578.596653844633 12.8761531088146 -2.56340964699225e-11)
(583.766320954382 12.8051490319659 -2.49883189926258e-11)
(584.782069843413 12.8088327130206 -2.46668722068755e-11)
(589.254327333 12.7053408141124 -2.3552158121683e-11)
(590.111150458526 12.7227809234839 -2.33521834608218e-11)
(593.604750600446 12.6947974853268 -2.3220402764773e-11)
(594.230021826072 12.7736682217955 -2.3393097141346e-11)
(596.264089936357 13.1533061729322 -2.41024733012646e-11)
(596.540808960599 13.4558006609486 -2.41599670360866e-11)
(596.254600529387 14.7006926797333 -2.33729180901967e-11)
(596.064859434222 15.5027457683908 -2.30148233372917e-11)
(584.927599075261 17.0318810843504 -2.13634541673985e-11)
(580.828787458109 18.4820677495446 -2.09319402547127e-11)
(531.899780114522 13.4867752418704 -1.91811302786024e-11)
(515.111773677566 12.3953217787139 -1.87973618280466e-11)
(419.24027300142 -1.17258087384948 -1.81381142948966e-11)
(396.020997954269 -4.94739657379601 -1.81894747239899e-11)
(309.849818652014 -12.8443705230553 -1.87872780083851e-11)
(297.306251625984 -14.5351828912681 -1.89566883585051e-11)
(265.56465869342 -13.912338803535 -1.89902828389427e-11)
(264.311523735773 -13.5767296919768 -1.89163422168616e-11)
(267.320130743798 -10.6019162275318 -1.82072920348186e-11)
(269.75287081631 -10.1617969766892 -1.79970578287381e-11)
(281.839331739642 -7.79309842902623 -1.68319146146854e-11)
(284.721888970281 -7.41939133353366 -1.65707060985499e-11)
(297.834554131533 -5.63223341686179 -1.26067852018578e-11)
(300.654806538523 -5.34829443217106 -1.07872751747667e-11)
(313.660940616903 -3.98788969943013 -2.41297181404494e-12)
(316.405014697382 -3.77309076141773 -1.10734582894429e-12)
(329.270894139541 -2.66850365466284 -1.32045334152945e-13)
(331.961700707961 -2.49374973885385 -6.76252273241931e-13)
(344.661465071266 -1.52482193380099 -2.09482180573793e-12)
(347.294515212593 -1.3712046898737 -2.31799734938348e-12)
(359.714106210037 -0.483021114739051 -2.95156759062933e-12)
(362.266671534282 -0.342482367145485 -3.06990947111269e-12)
(374.259745764074 0.476537220916088 -3.32223666757064e-12)
(376.705073621556 0.605538565572207 -3.34748317656968e-12)
(388.137981434972 1.34718228015885 -3.22700239422369e-12)
(390.452976477375 1.46342772274462 -3.17128476853496e-12)
(401.222604686178 2.11441355990605 -1.01176017593805e-12)
(403.390197589034 2.21606922752186 7.39512522496216e-14)
(413.425004027792 2.76485441609712 5.08642296729404e-12)
(415.43378799364 2.85040139303924 5.89132711446321e-12)
(424.687558988255 3.28925267319655 6.42455108852725e-12)
(426.53037516571 3.3577433164173 6.0512899943817e-12)
(434.973920678121 3.68253425519426 4.88124024039461e-12)
(436.646208012453 3.73354181414989 4.65436956607945e-12)
(444.259178527296 3.94269742175351 3.8897510471303e-12)
(445.757393147613 3.97615854926898 3.73395890976915e-12)
(452.520797317099 4.06943820746085 3.20626966405909e-12)
(453.840952366895 4.0854821906056 3.1012065325403e-12)
(459.730201936663 4.06288831257632 2.7851026125799e-12)
(460.866460920631 4.06169106801626 2.73591349201687e-12)
(465.844427268111 3.92260264338353 2.71019658699763e-12)
(466.787626817788 3.90427846382112 2.74274403920921e-12)
(470.797016856492 3.64684678249915 4.35029904426496e-12)
(471.532959386906 3.61138247088568 5.16078873787862e-12)
(474.487201534706 3.23225127301647 8.80619643139784e-12)
(474.994530312921 3.17949183285048 9.39063205192438e-12)
(476.766319229768 2.67400762713287 9.69974078015752e-12)
(477.013780756526 2.60371375030693 9.39877036552941e-12)
(477.420644759035 1.96707896867406 8.40741986311934e-12)
(477.363616331023 1.87913590707506 8.20727826880706e-12)
(476.150944774674 1.10941059249402 7.50125708892343e-12)
(475.727441952494 1.00429547881802 7.35241582340866e-12)
(472.553218574027 0.109536955540714 6.81996769730321e-12)
(471.680931756688 -0.0104201915015774 6.70873188824984e-12)
(466.118928765297 -0.998571689232748 6.30741596603971e-12)
(464.699020095081 -1.12745933057232 6.22424809810133e-12)
(456.317511812427 -2.13087999125124 5.92517759605823e-12)
(454.266563974491 -2.25564571773901 5.86383442073112e-12)
(442.878198867666 -3.18029759298538 5.64842526643739e-12)
(440.204853044696 -3.30684962788732 5.60508348653902e-12)
(426.392396314448 -4.30052606690992 5.46474812411308e-12)
(423.362263437164 -4.52853397257343 5.43865918977466e-12)
(412.253155883407 -5.59919848931152 5.36709815633647e-12)
(410.770755623522 -5.94491727394944 5.35263539882987e-12)
(320.941574020252 -0.685400283064886 2.21082219961059e-16)
(321.608268152202 -0.730461824746846 -1.14876191572234e-17)
(328.578969080009 -0.979493462125067 -4.73398585774221e-14)
(330.129214676199 -1.02333562471994 -8.34672530657351e-14)
(339.995143323465 -0.920315491521036 -4.23168401908768e-13)
(341.872183512705 -0.899001938282068 -5.2142469224288e-13)
(353.495204820484 -0.416606961209164 -2.86516424900052e-12)
(355.652265619718 -0.348515898833352 -4.08984968867642e-12)
(368.59992684588 0.424106759405358 -1.35180261847565e-11)
(370.946242324473 0.52821672742633 -1.54481217075617e-11)
(384.68407940215 1.5093335343679 -2.37295073242256e-11)
(387.128436117324 1.63882759482386 -2.50675917563333e-11)
(401.178311132603 2.74690341098836 -2.97498603908602e-11)
(403.644984665488 2.89128270019763 -2.98779651278947e-11)
(417.634718847617 4.05302960666837 -2.88882891001531e-11)
(420.067229530207 4.20308405415071 -2.89946871994458e-11)
(433.731695812847 5.35936532206244 -3.16086266188204e-11)
(436.091109443375 5.50781869617209 -3.17782753064353e-11)
(449.254981731689 6.61509165381393 -3.09617460975365e-11)
(451.516435107319 6.75667785979603 -3.10228701092028e-11)
(464.073213911758 7.78557016713768 -3.30559917922873e-11)
(466.2223636814 7.91679254000089 -3.31769307998739e-11)
(478.11551380347 8.84948041025511 -3.24004614291649e-11)
(480.1455244007 8.96825611160421 -3.24342219055191e-11)
(491.35335806421 9.79564984516198 -3.38438165705536e-11)
(493.262550703458 9.90095105551816 -3.3851978849433e-11)
(503.786777549436 10.6201603797089 -3.17564443032196e-11)
(505.576872510806 10.7117023677418 -3.11595134909835e-11)
(515.434173959226 11.3239475965172 -2.86561315742994e-11)
(517.109004534981 11.4019363412022 -2.82183472765239e-11)
(526.324892839875 11.9108987515062 -2.6392244694473e-11)
(527.889469071514 11.9758323820943 -2.6100598928177e-11)
(536.493759992477 12.386366392805 -2.56094204238516e-11)
(537.953569612784 12.4388959513815 -2.58273807343641e-11)
(545.976856109549 12.7560874872465 -2.74704405548132e-11)
(547.337293936519 12.7969392383572 -2.75849440592687e-11)
(554.807763404815 13.0254802425286 -2.64575924481207e-11)
(556.073588028636 13.0554058450156 -2.61041236991659e-11)
(563.013421163013 13.1991667870323 -2.46784494705288e-11)
(564.188070641298 13.2190263774986 -2.44603050512302e-11)
(570.608137802196 13.2812793691704 -2.41444377017691e-11)
(571.692586435801 13.29239825219 -2.43266415523892e-11)
(577.582688821849 13.2772656829756 -2.56274966044636e-11)
(578.573326003111 13.2818935453976 -2.57206937914116e-11)
(583.882853284921 13.1974769214171 -2.48399622951978e-11)
(584.766687936323 13.2006822066958 -2.45602614647111e-11)
(589.363508740663 13.0736504515935 -2.34250595514198e-11)
(590.10905714996 13.0888256323427 -2.32510553889933e-11)
(593.705678877595 13.0183624836374 -2.30187873923035e-11)
(594.249746788179 13.0869903606898 -2.31690541322092e-11)
(596.349638356835 13.3711210800204 -2.41899103889221e-11)
(596.590420173058 13.6343309277044 -2.42399374730006e-11)
(596.262048641171 14.7036018100204 -2.32637631208181e-11)
(596.096949022049 15.4014931094101 -2.29521737560445e-11)
(585.87144074379 16.5551466294395 -2.13145377053591e-11)
(582.30493747125 17.8169990809076 -2.09390640497024e-11)
(534.275260022546 13.277906359695 -1.90872939907212e-11)
(519.667494287163 12.3281988074174 -1.87533651443508e-11)
(416.854014967904 -2.96068090597969 -1.8021041449419e-11)
(396.650202698236 -6.24526526959287 -1.80657317537193e-11)
(306.097165130082 -14.4453676166274 -1.88781257826528e-11)
(295.182617932925 -15.9165959646801 -1.90255349891597e-11)
(264.604668050457 -14.182809739238 -1.89852696655864e-11)
(263.514276408968 -13.8907858292692 -1.89209316341622e-11)
(267.672306834286 -10.6636948079463 -1.82032775297279e-11)
(269.789109517665 -10.2807333803291 -1.80203462184063e-11)
(282.303811822978 -7.79474059946981 -1.67755576498081e-11)
(284.812014384262 -7.46956645058523 -1.65482720083519e-11)
(298.219465078152 -5.61469120762139 -1.32113533937796e-11)
(300.673454277565 -5.36762707960352 -1.1628141216161e-11)
(313.97647836339 -3.96023593407104 -1.52931820776287e-12)
(316.364182435264 -3.77333270774233 -3.93252493230079e-13)
(329.546889051927 -2.6263742785219 -3.85149168583357e-13)
(331.888243407391 -2.4743154695701 -8.58680526081657e-13)
(344.916384591173 -1.46291996653727 -2.19585366443442e-12)
(347.207483285855 -1.32925283216773 -2.39004563545157e-12)
(359.955463996766 -0.398890440785189 -3.01097440486555e-12)
(362.17653035273 -0.276603312215118 -3.11394735006173e-12)
(374.489091662994 0.582500322258874 -3.36779581679306e-12)
(376.616847368976 0.694748398250681 -3.38976358827797e-12)
(388.354509681233 1.47264697797543 -3.25159948764576e-12)
(390.368858757462 1.57379574745419 -3.20311785127939e-12)
(401.424995667099 2.25595512178162 -1.42065081772165e-12)
(403.311085564283 2.34440887498825 -4.75939588383462e-13)
(413.612158406054 2.91851704001669 5.59055880826385e-12)
(415.360063715496 2.99295412122896 6.29093090220147e-12)
(424.858783297995 3.45087326142034 6.25499389425399e-12)
(426.462274880795 3.5104690969945 5.93020782499157e-12)
(435.128885457165 3.84790168196607 4.78237591153331e-12)
(436.583994597961 3.89228494300162 4.58496869257197e-12)
(444.397804794604 4.10760581595348 3.82162483597629e-12)
(445.701447861284 4.13672138210617 3.68606525929086e-12)
(452.643137851291 4.22967193595182 3.15802548300432e-12)
(453.791845756201 4.24363230391578 3.06660678964036e-12)
(459.836341479813 4.21416115510665 2.74311955536489e-12)
(460.82503570714 4.21311939543573 2.70031857404453e-12)
(465.934408322237 4.06046451547326 2.67048598040517e-12)
(466.755115540521 4.04452007779712 2.69880652930273e-12)
(470.87079263008 3.7665680356731 4.04329627479381e-12)
(471.511159079745 3.73570943682985 4.74852852614615e-12)
(474.544618568481 3.32869592778987 9.16515394766221e-12)
(474.986061092989 3.28278830051031 9.67368953014039e-12)
(476.807134698512 2.74152060787379 9.55897049137332e-12)
(477.022458657611 2.68035572274217 9.29708678727308e-12)
(477.444581524243 1.9994257909338 8.31827820248525e-12)
(477.394959318069 1.92290380205354 8.14412878607901e-12)
(476.157761047126 1.0999014439741 7.43673241310253e-12)
(475.789258090094 1.0084375193209 7.30722100586293e-12)
(472.542550027291 0.0514098485533861 6.77284736846098e-12)
(471.783546179538 -0.0529685902361828 6.67605763668792e-12)
(466.089039984065 -1.11057339483789 6.2726590500946e-12)
(464.853533356281 -1.222722534043 6.20029210550726e-12)
(456.258387874091 -2.29829046499976 5.89944109591266e-12)
(454.473794470189 -2.40685299809042 5.84606449411017e-12)
(442.766056389054 -3.38460288744415 5.62936922316814e-12)
(440.439895170432 -3.49471974295801 5.59165619454335e-12)
(426.165452449668 -4.49746930175975 5.45022886022288e-12)
(423.528839735427 -4.69586606103279 5.4275280682895e-12)
(411.104782459364 -5.87063704160222 5.35577645746594e-12)
(409.782515662495 -6.1793431752481 5.34286517576635e-12)
(321.174272916817 -0.44749800580835 2.11467255211933e-14)
(321.822094066189 -0.445462139386588 2.39098287059787e-14)
(329.280697092063 -0.425767116412751 4.50510406820766e-14)
(330.748259808782 -0.372151951680429 3.74278036359584e-14)
(341.150543600359 0.236459791352825 -1.91044902361576e-13)
(342.894351098015 0.397061149700193 -2.55735660493663e-13)
(355.014711093021 1.60679820289104 -1.48697615707223e-12)
(356.992868641901 1.8569447552257 -1.99353155663333e-12)
(370.378494026397 3.53940634935743 -8.73243160880734e-12)
(372.510188254393 3.85540595555426 -9.57836148614366e-12)
(386.616489671957 5.85860220105408 -1.52923477657652e-11)
(388.821100053685 6.21486515658476 -1.59767460298199e-11)
(403.171102166079 8.38877357079076 -1.99574872628822e-11)
(405.383530101758 8.76180076349237 -2.02321214827397e-11)
(419.614958158027 10.9775588327685 -1.9690253351078e-11)
(421.788092636803 11.3482452352854 -1.98931635343599e-11)
(435.648993712772 13.5063233564772 -2.27595893265745e-11)
(437.751270934251 13.860568990602 -2.29595715914268e-11)
(451.0789432874 15.8907808489524 -2.24162921031406e-11)
(453.090771787211 16.2190875027007 -2.2571449132013e-11)
(465.78904661631 18.0764851348336 -2.48563024772582e-11)
(467.699513220746 18.3731257931951 -2.50037428170772e-11)
(479.719473182193 20.0325610984249 -2.44317646333218e-11)
(481.523709845184 20.2946682235579 -2.45209344714089e-11)
(492.848787644603 21.7454759684451 -2.61414116247717e-11)
(494.545993955123 21.9722100503551 -2.6189020107613e-11)
(505.180952037224 23.2136059270881 -2.49017182645222e-11)
(506.772953131527 23.4054608804252 -2.47639134259597e-11)
(516.735884723377 24.4427938323987 -2.34507644413103e-11)
(518.226086040215 24.6010452172863 -2.33186322618853e-11)
(527.542586644934 25.4428184706188 -2.2294898950058e-11)
(528.935202586098 25.5690849953493 -2.22064803202777e-11)
(537.633971010826 26.2245302774572 -2.17810333845024e-11)
(538.933429730421 26.3204024799989 -2.18246531288678e-11)
(547.042623628263 26.797375119922 -2.30845775587198e-11)
(548.253036741996 26.8641051202972 -2.30980846613125e-11)
(555.796598763812 27.1670614716438 -2.22166099580083e-11)
(556.9211472289 27.2052718702907 -2.21121281502443e-11)
(563.914084234288 27.3328360106738 -2.13071455971733e-11)
(564.954168982386 27.342072507571 -2.12418409720238e-11)
(571.395066419947 27.2837275909188 -2.09336223531411e-11)
(572.348811325498 27.2619637779745 -2.09650301865042e-11)
(578.2056212693 26.9932462696731 -2.19273576242109e-11)
(579.065082339151 26.9362670930763 -2.19310351999853e-11)
(584.246279991869 26.4103210078241 -2.1221584353478e-11)
(584.9918971432 26.3106704295128 -2.11398414199213e-11)
(589.291567131495 25.4386949719133 -2.04964193805131e-11)
(589.879648005412 25.2866062901591 -2.04484259609414e-11)
(592.859087060356 23.8366906612275 -2.02211347665773e-11)
(593.212735398711 23.5987097463334 -2.02501686876786e-11)
(593.722416544667 20.7867186752714 -2.10341891029321e-11)
(593.626202335058 20.2534792127901 -2.10306304745402e-11)
(588.073440639952 13.7833263557629 -2.029123114411e-11)
(586.359712109826 12.1436550256369 -2.01968435739348e-11)
(567.767161473079 -2.05624961356999 -1.93157846735607e-11)
(562.3041853056 -6.09477536311588 -1.92199931808491e-11)
(516.317821930504 -25.7475499727127 -1.82923553915614e-11)
(506.045172611796 -29.964548876019 -1.82636333029771e-11)
(421.029275908282 -45.6131770793312 -1.7940239622082e-11)
(408.363571067437 -45.6445116343627 -1.79771182188785e-11)
(330.038311167152 -40.5844610663042 -1.84498404171206e-11)
(321.20504784736 -37.9374321218952 -1.84183185865888e-11)
(287.796808635644 -24.4627007832498 -1.80092293691713e-11)
(285.334090761516 -22.6029128644285 -1.78879312508163e-11)
(283.321523488695 -14.5569047279881 -1.70791710157687e-11)
(284.010955425958 -13.6124670532939 -1.69189476955964e-11)
(292.512354534193 -9.35966515176559 -1.57027498750033e-11)
(293.999290816828 -8.81434726616246 -1.55033786621887e-11)
(305.078050827105 -6.18042660054388 -1.34297518683517e-11)
(306.800811132203 -5.79926907789404 -1.27218431348192e-11)
(318.774516147569 -3.81317117736764 -4.71468483684549e-12)
(320.621995265569 -3.49864910910173 -4.105378952455e-12)
(333.07497142648 -1.75391445967081 -4.00014924398279e-12)
(334.991639670582 -1.46497717186561 -3.97144836303166e-12)
(347.629259261394 0.184545506082522 -4.1512754556251e-12)
(349.562927365584 0.459859655771354 -4.11795831733702e-12)
(362.100945128571 2.03436139235446 -4.15247017955958e-12)
(364.005522688712 2.29416799397814 -4.1245416675005e-12)
(376.200527977117 3.76270317522184 -4.05372863315049e-12)
(378.040044463448 4.00039355163415 -4.01579408851256e-12)
(389.706535292578 5.32053927441364 -3.69335034544367e-12)
(391.455284981425 5.52934222349365 -3.60883559895744e-12)
(402.463045162508 6.66450364822846 -2.54733057463049e-12)
(404.103761498283 6.83921177613986 -2.15146752046473e-12)
(414.366603452279 7.76365376816805 2.57440242335742e-12)
(415.888177845967 7.90089687121918 2.91096553844832e-12)
(425.351068705832 8.59908257006956 2.88131374801792e-12)
(426.746452514769 8.69698810214442 2.88043240292507e-12)
(435.373829587391 9.160824240271 2.53806126744504e-12)
(436.638280945417 9.2184940685144 2.52895584753249e-12)
(444.404173540879 9.44418896634421 2.2601848401067e-12)
(445.533814695377 9.46118084479562 2.24605001779057e-12)
(452.413478411251 9.44640252529088 2.04406129311695e-12)
(453.404063475274 9.42228310252924 2.03235111421268e-12)
(459.366513294795 9.16382936610638 1.91242672797248e-12)
(460.212290183172 9.09781356248521 1.91236945002402e-12)
(465.213028881935 8.58983766322836 2.00685555308112e-12)
(465.905578365194 8.48051675264548 2.05788890852798e-12)
(469.878805994707 7.71337277818775 2.80789075394394e-12)
(470.405744942458 7.55854881685759 3.07882828681369e-12)
(473.255382133966 6.5184989087459 6.44326530365824e-12)
(473.598834607801 6.31518811209853 6.66224145379437e-12)
(475.187884072434 4.9856220775198 6.5286297593027e-12)
(475.322679576762 4.73038975431953 6.51630887775805e-12)
(475.461075479735 3.09594425362705 6.17232810933229e-12)
(475.352805589521 2.78591256819324 6.1556424944175e-12)
(473.78551216928 0.842332133951651 5.87077943117147e-12)
(473.38899304348 0.477578727852511 5.85130356244526e-12)
(469.790280236688 -1.74808460089218 5.61825316437908e-12)
(469.050102785191 -2.15959893345688 5.59962371955409e-12)
(463.039548346633 -4.5714501612851 5.41637644288083e-12)
(461.896549337926 -5.0049900970747 5.4008120009454e-12)
(453.113300322246 -7.39206999716242 5.26573096759456e-12)
(451.525694080441 -7.79789542327 5.25457858107144e-12)
(439.837204094798 -9.8470513437256 5.16621515275093e-12)
(437.822880735568 -10.1721300537265 5.16022766117635e-12)
(423.918175679989 -11.5835787540153 5.11559741174125e-12)
(421.746021882773 -11.7502801446115 5.11430211122581e-12)
(409.783556606204 -12.2616112700026 5.10886161230091e-12)
(408.746908621171 -12.1627435113149 5.11130393712142e-12)
(321.179038483823 -0.402059376294441 2.6295754891852e-14)
(321.836388007881 -0.403464793020516 2.87075686891511e-14)
(329.420356082562 -0.310798276011617 6.55375241803562e-14)
(330.916550550135 -0.256137093946547 5.77655598455743e-14)
(341.395988231336 0.484608112181226 -1.20081150921015e-13)
(343.173816940651 0.648342759502581 -1.8603400821129e-13)
(355.347115534902 2.05213767320315 -1.35682595144496e-12)
(357.363866401427 2.30716451697729 -1.87326410956109e-12)
(370.772755082523 4.23153067337847 -7.58789851207519e-12)
(372.94603808716 4.55369534624765 -8.45033225204816e-12)
(387.04582699407 6.82647211604212 -1.35674507347716e-11)
(389.293448726836 7.18968566527818 -1.42652014234672e-11)
(403.611793603028 9.64230022118398 -1.78287021756581e-11)
(405.867385408103 10.0226050733146 -1.81086944347116e-11)
(420.04870666199 12.5117465088084 -1.81089605725108e-11)
(422.264238405469 12.8896649025722 -1.83158294784744e-11)
(436.063245255348 15.3056677561196 -2.07541339871826e-11)
(438.206537335644 15.666824626556 -2.09580178518214e-11)
(451.466123889934 17.9330593981176 -2.08878961317679e-11)
(453.517202618514 18.2677712257004 -2.10460802322218e-11)
(466.145430977925 20.3357090573928 -2.29986941968543e-11)
(468.093170268025 20.6381370946012 -2.31490110577427e-11)
(480.044062053227 22.4811188941838 -2.297264182489e-11)
(481.883498884515 22.7483396582899 -2.30635513423508e-11)
(493.142347450891 24.3555896129692 -2.44023802341494e-11)
(494.87266579654 24.5867472153661 -2.44509175455877e-11)
(505.445250371637 25.9582328437582 -2.35582669785991e-11)
(507.068310975813 26.153830835237 -2.34177736049852e-11)
(516.973100991427 27.2960849220835 -2.23853840788195e-11)
(518.492375732071 27.4574237485998 -2.22506740363854e-11)
(527.75484985122 28.3802226321303 -2.14238990048092e-11)
(529.17463535196 28.5089525825366 -2.13337553515257e-11)
(537.822951515355 29.2226032073397 -2.1028551304989e-11)
(539.14776232238 29.3203458505691 -2.10730220587449e-11)
(547.209098667841 29.8332451145869 -2.20159352970236e-11)
(548.443126613368 29.9012769991837 -2.20297059195272e-11)
(555.939887881914 30.217449872638 -2.13668624139186e-11)
(557.086375982773 30.2564057458064 -2.12603421944025e-11)
(564.031122387164 30.3725408024068 -2.06014460991092e-11)
(565.091498906807 30.3819575008551 -2.05348673984224e-11)
(571.478846384383 30.2829045682808 -2.03075488501804e-11)
(572.45119859455 30.2607161492445 -2.03395694418601e-11)
(578.242170281145 29.9124703070314 -2.10416821358704e-11)
(579.118399203532 29.8543794821421 -2.10454314601514e-11)
(584.208051260768 29.19213287212 -2.05007774044426e-11)
(584.968215200639 29.0905381380339 -2.04174396884069e-11)
(589.128202131423 27.9841526444126 -1.98897432888673e-11)
(589.727756303805 27.8290967536975 -1.98408135306873e-11)
(592.461566694913 25.93753014456 -1.96755842363102e-11)
(592.822114616501 25.6949062865156 -1.97051846013433e-11)
(592.766022691155 21.9565721438116 -2.02835243158151e-11)
(592.667931368393 21.4129293239398 -2.02798962595477e-11)
(585.794551987813 12.9464833150474 -1.96926614749011e-11)
(584.047389078531 11.2748224416665 -1.95964324288134e-11)
(562.799718159395 -6.61603881943797 -1.88688584228869e-11)
(557.230160807505 -10.7333551118064 -1.87711980641146e-11)
(511.070521040761 -35.5320344353917 -1.81055209389136e-11)
(500.597455118014 -39.831305844379 -1.80762384901655e-11)
(424.031631084487 -54.9310407131098 -1.79021213640614e-11)
(411.11882177495 -54.9629865968174 -1.79397194522863e-11)
(336.879919524056 -45.0274243293796 -1.82050045943011e-11)
(327.874321630951 -42.3287525676826 -1.81728677813989e-11)
(292.821957474005 -26.1250452461742 -1.77141220720993e-11)
(290.311192641617 -24.22897336911 -1.75904574603303e-11)
(286.444518609877 -15.0914417226899 -1.6769305327498e-11)
(287.147401177381 -14.128578324931 -1.6605956093774e-11)
(294.523795728428 -9.5269383907051 -1.54471247129275e-11)
(296.039741734937 -8.97098150094993 -1.52438638217861e-11)
(306.434000521216 -6.20579688136129 -1.32025320247747e-11)
(308.190371412951 -5.81720307874869 -1.24808121837136e-11)
(319.738832853049 -3.72232809302819 -5.70889602517505e-12)
(321.622355787922 -3.40166978445451 -5.08770274811871e-12)
(333.797927262987 -1.52477474056206 -4.51932445676429e-12)
(335.751989185062 -1.23020036458169 -4.49006362940452e-12)
(348.191974367609 0.571520858395842 -4.45926439461642e-12)
(350.163367812435 0.85220631252742 -4.42529724799019e-12)
(362.545879934358 2.5846733874368 -4.33485013949219e-12)
(364.487615286506 2.84954874544344 -4.30637674973224e-12)
(376.550345896092 4.46865911553198 -4.16049772726501e-12)
(378.425750850513 4.71098676676746 -4.1218230899425e-12)
(389.974346784961 6.16487961200705 -3.77655665169751e-12)
(391.757214106278 6.37775625003229 -3.69039304541315e-12)
(402.65740927333 7.62384172766587 -2.61899076761725e-12)
(404.330135540138 7.80195836380212 -2.21540453255446e-12)
(414.493734212029 8.81103207966057 1.72845722485709e-12)
(416.044994109749 8.95095275845559 2.07158659510554e-12)
(425.415682131335 9.70564490672734 2.31148783217726e-12)
(426.838289500198 9.80546054919791 2.31058929228053e-12)
(435.379378519655 10.2967706795061 2.13445653411057e-12)
(436.668498980975 10.3555656304684 2.12517346992335e-12)
(444.352827462592 10.5791872189999 1.96813115703689e-12)
(445.504507609851 10.5965106043946 1.95372056816829e-12)
(452.306006538256 10.5495965627844 1.8276355201802e-12)
(453.315917648402 10.5250065766217 1.81569687885928e-12)
(459.202138467337 10.2035537241311 1.74798995519707e-12)
(460.064416233577 10.1362499700734 1.74793155977137e-12)
(464.98928996757 9.53312814081855 1.86335321916811e-12)
(465.695350903547 9.42167440889917 1.9153822215483e-12)
(469.591478359709 8.52537174058741 2.66323278335085e-12)
(470.128697743515 8.36752720573324 2.9394562340554e-12)
(472.898561535171 7.16190338503859 5.7060448119053e-12)
(473.248714673686 6.95462604985142 5.92929312738205e-12)
(474.754461405084 5.42044080558428 5.99820044356789e-12)
(474.891886733168 5.16022896893333 5.9856391849636e-12)
(474.94406022234 3.28007083981417 5.77543147461391e-12)
(474.833678015912 2.96399052022462 5.75842032787439e-12)
(473.181036339922 0.733806665695864 5.57045964049776e-12)
(472.776781233445 0.361937019501897 5.55060380285119e-12)
(469.10359226152 -2.18560508652786 5.38906161068624e-12)
(468.348974148553 -2.60514795218925 5.37006871044179e-12)
(462.29521517466 -5.35836717939523 5.2410094230383e-12)
(461.129916565076 -5.8003653618309 5.2251413230591e-12)
(452.36754809015 -8.51537735692771 5.13231529531602e-12)
(450.748968080852 -8.92912032710884 5.12094532875444e-12)
(439.174467673992 -11.2434963196519 5.06641624734652e-12)
(437.120845411961 -11.5749172271797 5.06031194143409e-12)
(423.420578213142 -13.1141154764118 5.0427112373428e-12)
(421.206046284056 -13.2840691659579 5.04139066586536e-12)
(409.519087857815 -13.7461162162862 5.04724016174384e-12)
(408.443417248867 -13.7684446764305 5.04462418628916e-12)
(321.641097481295 -0.179144745946348 1.00668941752687e-13)
(322.365652032116 -0.145754121375976 1.1585139984821e-13)
(330.422893538802 0.30385570647367 2.74456841907498e-13)
(332.060931918133 0.450740691040064 2.99012671734109e-13)
(343.201998954695 1.85182769996868 3.7499566043352e-13)
(345.118879556663 2.16184555412075 3.70972814949579e-13)
(357.850174724657 4.51555007175647 -2.57104150651363e-13)
(359.981456050657 4.96800026783726 -5.45308528270891e-13)
(373.772999555875 8.06438835314504 -3.84893853718499e-12)
(376.026900812091 8.61813164935975 -4.35319690331428e-12)
(390.320096719699 12.185114943251 -7.38523782117726e-12)
(392.614416345248 12.7951686239552 -7.80478881120992e-12)
(406.959558588945 16.5729358070447 -1.00080379760193e-11)
(409.233109236298 17.1997867646532 -1.01927434257305e-11)
(423.312591489115 20.9759171923883 -1.0636633091867e-11)
(425.524297746036 21.5889601437425 -1.08054987950586e-11)
(439.132255737495 25.2071169762578 -1.26094640703276e-11)
(441.256676249374 25.7848117534492 -1.27907650156722e-11)
(454.270127629502 29.1401153700134 -1.34203190854328e-11)
(456.292936484709 29.6686992574622 -1.35803598405922e-11)
(468.646552683406 32.6980431737023 -1.50970182098778e-11)
(470.560953573514 33.1698151351466 -1.52586926497273e-11)
(482.227946451685 35.841385650935 -1.57575600797784e-11)
(484.03206733158 36.2530439035911 -1.58862320032307e-11)