/*--------------------------------*- C++ -*----------------------------------*\
| =========                 |                                                 |
| \\      /  F ield         | OpenFOAM: The Open Source CFD Toolbox           |
|  \\    /   O peration     | Version:  4.1                                   |
|   \\  /    A nd           | Web:      www.OpenFOAM.org                      |
|    \\/     M anipulation  |                                                 |
\*---------------------------------------------------------------------------*/
FoamFile
{
    version     2.0;
    format      ascii;
    class       volScalarField;
    location    "0.0004";
    object      p;
}
// * * * * * * * * * * * * * * * * * * * * * * * * * * * * * * * * * * * * * //

dimensions      [1 -1 -2 0 0 0 0];

internalField   nonuniform List<scalar> 
441
(
100000
99999.9
99999.7
100000
100000
99999.5
99999.9
100000
100000
100002
100001
100001
100001
100000
100000
100000
100000
100000
100000
100000
100000
100000
100000
100000
100000
100000
100000
100000
100000
100000
100000
100001
100000
100000
100000
100000
100000
100000
100000
100000
100000
100000
99999.9
99999.8
99999.8
99999.9
99999.9
99999.8
100000
100000
100000
100001
100001
100001
100001
100001
100001
100000
100000
100001
100001
100001
100001
99999.9
99999.6
99999.6
99999.6
99999.6
99999.7
99999.8
100000
100000
100000
100000
100000
100001
100001
100001
100001
100001
100001
100001
100001
100001
99999.5
99998.9
99999
99999
99999.1
99999.3
99999.5
99999.7
99999.9
100000
100000
100001
100001
100001
100001
100001
100001
100001
100001
100002
100001
99997.3
99998.2
99998
99998.3
99998.5
99998.8
99999
99999.3
99999.7
100000
100000
100001
100001
100001
100002
100002
100002
100002
100002
100002
100002
99996.5
99997
99997.1
99997.4
99997.7
99998.1
99998.5
99998.9
99999.4
99999.9
100000
100001
100001
100002
100002
100002
100003
100003
100003
100003
100002
99995.8
99996
99996.1
99996.4
99996.8
99997.2
99997.8
99998.4
99999
99999.7
100000
100001
100002
100002
100003
100003
100004
100004
100004
100005
100004
99994.4
99994.6
99994.7
99995.1
99995.6
99996.2
99996.9
99997.7
99998.6
99999.5
100000
100001
100002
100003
100004
100004
100005
100005
100006
100006
100006
99992.8
99993
99993.2
99993.7
99994.3
99995
99995.9
99997
99998.1
99999.3
100001
100002
100003
100004
100005
100006
100006
100007
100007
100008
100007
99990.8
99991
99991.3
99991.9
99992.6
99993.6
99994.8
99996.1
99997.6
99999.1
100001
100002
100004
100005
100006
100007
100008
100009
100010
100010
100011
99988.4
99988.7
99989.1
99989.8
99990.8
99992
99993.4
99995.1
99996.9
99998.8
100001
100003
100005
100006
100008
100009
100010
100011
100012
100012
100012
99985.6
99985.9
99986.4
99987.4
99988.6
99990.1
99992
99994
99996.2
99998.6
100001
100003
100006
100008
100010
100011
100013
100014
100014
100015
100013
99982.3
99982.7
99983.4
99984.6
99986.1
99988.1
99990.3
99992.8
99995.5
99998.3
100001
100004
100007
100009
100012
100014
100016
100017
100018
100019
100018
99978
99978.7
99979.5
99981.3
99983.2
99985.8
99988.6
99991.6
99994.7
99998
100001
100004
100008
100011
100014
100017
100019
100021
100022
100023
100022
99973.7
99974.6
99975.6
99978
99980.4
99983.6
99986.9
99990.4
99994
99997.7
100001
100005
100009
100012
100016
100019
100023
100025
100027
100028
100029
99966.1
99968.2
99969.7
99973.6
99976.9
99981.1
99985.1
99989.3
99993.3
99997.4
100001
100006
100010
100014
100018
100022
100027
100030
100036
100034
100045
99960.8
99963.6
99965.3
99970.4
99974.2
99979.3
99983.7
99988.4
99992.8
99997.2
100002
100006
100010
100015
100020
100024
100030
100034
100040
100041
100048
99944.1
99953.3
99956.4
99965.4
99970.5
99977.2
99982.3
99987.6
99992.4
99997.1
100002
100006
100011
100016
100021
100027
100034
100039
100049
100051
100062
99938.2
99949.5
99953.3
99963.7
99969.1
99976.4
99981.8
99987.3
99992.2
99997
100002
100006
100011
100016
100022
100027
100035
100040
100051
100055
100068
99890.2
99935.8
99943
99960.4
99966.9
99975.6
99981.2
99987
99992.1
99997
100002
100007
100012
100017
100023
100028
100037
100044
100062
100069
100116
)
;

boundaryField
{
    movingWall
    {
        type            zeroGradient;
    }
    fixedWalls
    {
        type            zeroGradient;
    }
    frontAndBack
    {
        type            empty;
    }
}


// ************************************************************************* //
