/*--------------------------------*- C++ -*----------------------------------*\
| =========                 |                                                 |
| \\      /  F ield         | OpenFOAM: The Open Source CFD Toolbox           |
|  \\    /   O peration     | Version:  4.1                                   |
|   \\  /    A nd           | Web:      www.OpenFOAM.org                      |
|    \\/     M anipulation  |                                                 |
\*---------------------------------------------------------------------------*/
FoamFile
{
    version     2.0;
    format      ascii;
    class       volVectorField;
    location    "0.0364";
    object      U;
}
// * * * * * * * * * * * * * * * * * * * * * * * * * * * * * * * * * * * * * //

dimensions      [0 1 -1 0 0 0 0];

internalField   nonuniform List<vector> 
441
(
(0.00328715 -0.00457037 0)
(0.00823042 -0.00264653 0)
(-0.000661676 -2.20956e-165 0)
(0.00162624 -2.59576e-266 0)
(-0.00922411 -0.00650555 0)
(-0.00162624 -2.61541e-232 0)
(-1.08041e-202 -4.18099e-203 0)
(-1.04507e-203 -5.24804e-228 0)
(-1.40547e-212 -2.18943e-213 0)
(-0.00495587 7.51026e-266 0)
(-0.0590937 0.0198256 0)
(-0.0749984 0.0106657 0)
(-0.0858298 0.0051703 0)
(-0.0778955 0.00090443 0)
(-0.067419 -0.000743166 0)
(-0.0491064 -0.00203658 0)
(-0.0325704 -0.00167093 0)
(-0.015961 -0.00164726 0)
(-0.0040006 -3.84477e-06 0)
(0.000795601 0.000595701 0)
(0.00359944 0.00226747 0)
(0.00305265 -0.00674176 0)
(-0.00285863 0.00658209 0)
(-0.0275748 0.00761259 0)
(-0.0556424 0.0107728 0)
(-0.0958168 0.00902101 0)
(-0.131219 -0.00463329 0)
(-0.163009 -0.00053325 0)
(-0.192071 0.00115451 0)
(-0.216869 0.0102382 0)
(-0.241959 0.0523219 0)
(-0.259144 0.0485228 0)
(-0.254277 0.0163493 0)
(-0.245021 -0.00267887 0)
(-0.216072 -0.0199342 0)
(-0.182485 -0.0280766 0)
(-0.137682 -0.0338771 0)
(-0.0956009 -0.0312491 0)
(-0.054699 -0.0280516 0)
(-0.0237527 -0.0163164 0)
(-0.00635905 -0.00893337 0)
(0.00359976 0.00233338 0)
(0.00625889 -0.00533639 0)
(-0.00614851 0.0275934 0)
(-0.0502485 0.0513988 0)
(-0.106701 0.0661699 0)
(-0.17259 0.0680698 0)
(-0.239041 0.0636769 0)
(-0.307315 0.0586665 0)
(-0.358889 0.0520522 0)
(-0.408768 0.0479318 0)
(-0.429893 0.0460947 0)
(-0.422812 0.0329629 0)
(-0.407889 -0.00243318 0)
(-0.382182 -0.0324263 0)
(-0.337086 -0.0614823 0)
(-0.284011 -0.0782676 0)
(-0.217117 -0.089166 0)
(-0.1533 -0.0835794 0)
(-0.0905616 -0.0739339 0)
(-0.0426484 -0.0473086 0)
(-0.0123643 -0.027127 0)
(0.00482626 -4.78133e-06 0)
(0.00588099 -0.00704486 0)
(-0.0129976 0.064655 0)
(-0.0818522 0.108267 0)
(-0.159881 0.13514 0)
(-0.248956 0.141673 0)
(-0.335474 0.132496 0)
(-0.41737 0.120595 0)
(-0.484736 0.103291 0)
(-0.537935 0.0830429 0)
(-0.566431 0.0640345 0)
(-0.56861 0.0262692 0)
(-0.548713 -0.0252736 0)
(-0.513269 -0.0735903 0)
(-0.453266 -0.119105 0)
(-0.382608 -0.147836 0)
(-0.294246 -0.165889 0)
(-0.209364 -0.157264 0)
(-0.124515 -0.140197 0)
(-0.0598258 -0.09374 0)
(-0.0165325 -0.0577128 0)
(0.00672195 -0.00485544 0)
(6.07917e-165 0.00147025 0)
(-0.0186914 0.114922 0)
(-0.114297 0.197556 0)
(-0.208601 0.232057 0)
(-0.318309 0.242766 0)
(-0.42132 0.230575 0)
(-0.52053 0.20694 0)
(-0.600558 0.171794 0)
(-0.664659 0.129136 0)
(-0.699029 0.0773878 0)
(-0.705762 0.0156532 0)
(-0.685974 -0.0575377 0)
(-0.644527 -0.127154 0)
(-0.57309 -0.192392 0)
(-0.486625 -0.23624 0)
(-0.375879 -0.263093 0)
(-0.268937 -0.2519 0)
(-0.157524 -0.224396 0)
(-0.0752418 -0.153695 0)
(-0.0152863 -0.0944156 0)
(0.0131335 -0.00895819 0)
(-4.99889e-266 0.00493256 0)
(-0.0739108 0.183187 0)
(-0.156619 0.296497 0)
(-0.267275 0.340832 0)
(-0.383884 0.354356 0)
(-0.500568 0.335742 0)
(-0.609633 0.3004 0)
(-0.702408 0.247674 0)
(-0.776204 0.182219 0)
(-0.822302 0.104437 0)
(-0.840951 0.013442 0)
(-0.826584 -0.0874181 0)
(-0.785466 -0.186245 0)
(-0.705884 -0.278378 0)
(-0.605382 -0.34456 0)
(-0.471029 -0.385658 0)
(-0.33876 -0.374594 0)
(-0.19606 -0.336669 0)
(-0.0921288 -0.234209 0)
(-0.0117395 -0.149087 0)
(0.0158924 -0.00598201 0)
(-0.0197302 0.0784986 0)
(-0.101481 0.268268 0)
(-0.195824 0.391385 0)
(-0.315653 0.457748 0)
(-0.445593 0.475488 0)
(-0.574959 0.455159 0)
(-0.698342 0.408229 0)
(-0.805271 0.337668 0)
(-0.894058 0.248935 0)
(-0.954879 0.141962 0)
(-0.98794 0.0204098 0)
(-0.98413 -0.113259 0)
(-0.948305 -0.246914 0)
(-0.864748 -0.373166 0)
(-0.752587 -0.469639 0)
(-0.5923 -0.531114 0)
(-0.431842 -0.524658 0)
(-0.246663 -0.47299 0)
(-0.12024 -0.33504 0)
(0.000596126 -0.204054 0)
(5.5589e-266 -0.0039731 0)
(-0.0141731 0.128429 0)
(-0.0950484 0.360355 0)
(-0.212683 0.511343 0)
(-0.349044 0.591438 0)
(-0.495014 0.61408 0)
(-0.639724 0.588929 0)
(-0.777921 0.531161 0)
(-0.901852 0.443411 0)
(-1.0084 0.332273 0)
(-1.08934 0.197862 0)
(-1.14294 0.0430475 0)
(-1.15678 -0.128017 0)
(-1.13373 -0.3052 0)
(-1.05267 -0.475986 0)
(-0.932605 -0.616292 0)
(-0.747061 -0.709834 0)
(-0.552867 -0.718548 0)
(-0.31976 -0.65373 0)
(-0.156762 -0.477155 0)
(-0.00188005 -0.278095 0)
(2.10199e-24 -1.41712e-24 0)
(-0.0123481 0.184646 0)
(-0.0983673 0.46508 0)
(-0.231814 0.64409 0)
(-0.382525 0.738514 0)
(-0.544462 0.765197 0)
(-0.704268 0.736799 0)
(-0.858825 0.669764 0)
(-1.00116 0.567289 0)
(-1.12849 0.436358 0)
(-1.2333 0.276018 0)
(-1.31221 0.0884175 0)
(-1.35082 -0.122901 0)
(-1.34845 -0.349744 0)
(-1.27834 -0.57529 0)
(-1.15712 -0.773146 0)
(-0.948615 -0.913232 0)
(-0.718313 -0.948415 0)
(-0.425387 -0.873215 0)
(-0.214066 -0.646197 0)
(-0.00385727 -0.367179 0)
(8.66355e-77 -5.25497e-25 0)
(-0.0108945 0.239906 0)
(-0.0990251 0.581484 0)
(-0.24491 0.796443 0)
(-0.407885 0.904837 0)
(-0.583714 0.93652 0)
(-0.75754 0.903502 0)
(-0.927083 0.82854 0)
(-1.08782 0.712893 0)
(-1.23639 0.564725 0)
(-1.36758 0.381011 0)
(-1.47582 0.16082 0)
(-1.54585 -0.0928955 0)
(-1.57279 -0.377269 0)
(-1.52422 -0.669691 0)
(-1.41172 -0.945352 0)
(-1.1879 -1.15366 0)
(-0.92155 -1.24023 0)
(-0.561144 -1.16662 0)
(-0.286422 -0.893706 0)
(-0.00524158 -0.505277 0)
(2.42385e-164 -2.16589e-77 0)
(-0.011587 0.291493 0)
(-0.105804 0.697442 0)
(-0.264477 0.950943 0)
(-0.438904 1.07531 0)
(-0.626084 1.11347 0)
(-0.810951 1.07844 0)
(-0.991566 0.999217 0)
(-1.16714 0.875379 0)
(-1.33329 0.715864 0)
(-1.489 0.514725 0)
(-1.62591 0.267192 0)
(-1.73103 -0.0263499 0)
(-1.79378 -0.36975 0)
(-1.77903 -0.737212 0)
(-1.68959 -1.10653 0)
(-1.46644 -1.40646 0)
(-1.17503 -1.57049 0)
(-0.749717 -1.51485 0)
(-0.402288 -1.19165 0)
(-0.0660738 -0.664403 0)
(1.54913e-265 0.0116226 0)
(-0.0131806 0.358371 0)
(-0.111795 0.836564 0)
(-0.280029 1.13121 0)
(-0.461532 1.2673 0)
(-0.654241 1.30991 0)
(-0.84388 1.26911 0)
(-1.02803 1.18551 0)
(-1.21069 1.05426 0)
(-1.38591 0.886756 0)
(-1.55838 0.672879 0)
(-1.71741 0.402663 0)
(-1.85466 0.0737633 0)
(-1.95529 -0.329289 0)
(-1.98397 -0.776294 0)
(-1.93421 -1.2576 0)
(-1.73456 -1.67436 0)
(-1.43691 -1.95633 0)
(-0.95261 -1.95184 0)
(-0.508634 -1.57229 0)
(-0.0667036 -0.924951 0)
(0.0464905 -0.0625158 0)
(-0.0177521 0.412204 0)
(-0.126781 0.961388 0)
(-0.309427 1.29785 0)
(-0.497513 1.44629 0)
(-0.689199 1.49405 0)
(-0.874862 1.44969 0)
(-1.04902 1.36506 0)
(-1.22474 1.23165 0)
(-1.39179 1.06312 0)
(-1.565 0.845469 0)
(-1.72926 0.563779 0)
(-1.88772 0.211543 0)
(-2.019 -0.23858 0)
(-2.09804 -0.758032 0)
(-2.10393 -1.35171 0)
(-1.9601 -1.90575 0)
(-1.69643 -2.34677 0)
(-1.1682 -2.45087 0)
(-0.656655 -2.07086 0)
(0.0343242 -1.2254 0)
(2.16826e-231 -0.0116226 0)
(-0.0237617 0.505794 0)
(-0.141438 1.13133 0)
(-0.333006 1.50577 0)
(-0.519515 1.64816 0)
(-0.698757 1.69033 0)
(-0.867073 1.62918 0)
(-1.01504 1.53716 0)
(-1.16515 1.39683 0)
(-1.30247 1.2274 0)
(-1.45252 1.00986 0)
(-1.59721 0.72465 0)
(-1.75323 0.362803 0)
(-1.89787 -0.120028 0)
(-2.021 -0.692618 0)
(-2.09592 -1.39603 0)
(-2.04754 -2.08675 0)
(-1.88002 -2.74884 0)
(-1.4037 -3.00891 0)
(-0.863405 -2.77034 0)
(-0.00394061 -1.61534 0)
(5.42732e-202 4.38732e-184 0)
(-0.0409975 0.570212 0)
(-0.183737 1.26452 0)
(-0.393183 1.6719 0)
(-0.575818 1.80639 0)
(-0.724618 1.83978 0)
(-0.856455 1.76233 0)
(-0.949923 1.66256 0)
(-1.04754 1.51747 0)
(-1.12285 1.35052 0)
(-1.21938 1.14033 0)
(-1.30978 0.865056 0)
(-1.43468 0.513882 0)
(-1.56113 0.0314036 0)
(-1.71816 -0.55688 0)
(-1.854 -1.31851 0)
(-1.948 -2.11941 0)
(-1.92476 -2.97657 0)
(-1.62278 -3.47679 0)
(-1.12363 -3.44922 0)
(-0.00978125 -2.11688 0)
(1.75493e-183 1.35164e-184 0)
(-0.060394 0.738254 0)
(-0.225249 1.48779 0)
(-0.437103 1.90704 0)
(-0.597446 1.98083 0)
(-0.694232 1.97786 0)
(-0.766435 1.85497 0)
(-0.78164 1.7322 0)
(-0.800609 1.5702 0)
(-0.786821 1.40058 0)
(-0.79893 1.19754 0)
(-0.802715 0.93914 0)
(-0.857953 0.61561 0)
(-0.929334 0.160829 0)
(-1.07729 -0.397215 0)
(-1.25366 -1.17019 0)
(-1.48004 -2.01322 0)
(-1.67511 -3.08038 0)
(-1.67512 -3.81796 0)
(-1.46371 -4.4027 0)
(-0.451587 -2.78452 0)
(4.28752e-254 -4.38732e-184 0)
(-0.125766 0.841485 0)
(-0.357821 1.62798 0)
(-0.564025 2.03853 0)
(-0.680653 2.0536 0)
(-0.666722 2.00771 0)
(-0.635544 1.84461 0)
(-0.519849 1.69746 0)
(-0.422205 1.52142 0)
(-0.281753 1.35004 0)
(-0.182051 1.15817 0)
(-0.0702082 0.92562 0)
(-0.0348364 0.645682 0)
(-0.0171683 0.253588 0)
(-0.139395 -0.223848 0)
(-0.303517 -0.908253 0)
(-0.693291 -1.68702 0)
(-1.06103 -2.75615 0)
(-1.68144 -3.68786 0)
(-1.75828 -4.58768 0)
(-2.04279 -3.65611 0)
(-2.48761e-264 -0.210137 0)
(-0.17993 1.24283 0)
(-0.442489 1.93024 0)
(-0.573358 2.25193 0)
(-0.58196 2.08379 0)
(-0.409021 1.94657 0)
(-0.230391 1.70791 0)
(0.0424563 1.52556 0)
(0.27997 1.33235 0)
(0.55829 1.16249 0)
(0.780577 0.987599 0)
(1.01206 0.790938 0)
(1.15181 0.566957 0)
(1.27016 0.261405 0)
(1.22504 -0.101835 0)
(1.1186 -0.626991 0)
(0.731452 -1.23888 0)
(0.261044 -2.12152 0)
(-0.582833 -3.07677 0)
(-1.21959 -4.12795 0)
(-1.86442 -4.40284 0)
(-0.84055 -2.2759 0)
(-0.398947 1.42928 0)
(-0.729732 1.99264 0)
(-0.546107 2.17208 0)
(-0.301373 1.87262 0)
(0.206333 1.65743 0)
(0.614799 1.38573 0)
(1.10956 1.18946 0)
(1.50727 1.00394 0)
(1.92761 0.85142 0)
(2.257 0.707202 0)
(2.5849 0.556256 0)
(2.79668 0.395681 0)
(2.9893 0.183116 0)
(2.99 -0.0569191 0)
(2.95174 -0.410855 0)
(2.57505 -0.806477 0)
(2.15266 -1.4404 0)
(1.18639 -2.17503 0)
(0.33851 -3.30697 0)
(-0.756619 -3.95918 0)
(-0.694876 -2.95389 0)
(-0.253757 2.43332 0)
(-0.091231 2.07207 0)
(0.695338 1.87439 0)
(1.3289 1.32418 0)
(2.11811 1.05155 0)
(2.70891 0.798892 0)
(3.31966 0.640124 0)
(3.78775 0.510912 0)
(4.24509 0.413652 0)
(4.59195 0.330124 0)
(4.92273 0.249337 0)
(5.13413 0.167332 0)
(5.32484 0.0640899 0)
(5.33625 -0.0519077 0)
(5.32084 -0.221823 0)
(4.99834 -0.417661 0)
(4.64924 -0.762323 0)
(3.75309 -1.22894 0)
(2.81656 -2.24966 0)
(1.06977 -3.32386 0)
(-0.0427513 -3.80142 0)
(1.66976 1.67204 0)
(2.71476 0.977812 0)
(4.56243 0.750505 0)
(5.40093 0.423652 0)
(6.25937 0.283948 0)
(6.75357 0.173931 0)
(7.21235 0.116472 0)
(7.51354 0.076411 0)
(7.7906 0.0512446 0)
(7.97711 0.0326629 0)
(8.15018 0.0167982 0)
(8.24004 0.00196788 0)
(8.32201 -0.0171341 0)
(8.28261 -0.037076 0)
(8.24379 -0.0728351 0)
(7.9806 -0.107774 0)
(7.74269 -0.200003 0)
(6.9999 -0.29559 0)
(6.26813 -0.630074 0)
(4.04954 -1.00251 0)
(2.011 -1.82458 0)
)
;

boundaryField
{
    movingWall
    {
        type            fixedValue;
        value           uniform (10 0 0);
    }
    fixedWalls
    {
        type            noSlip;
    }
    frontAndBack
    {
        type            empty;
    }
}


// ************************************************************************* //
