/*--------------------------------*- C++ -*----------------------------------*\
| =========                 |                                                 |
| \\      /  F ield         | OpenFOAM: The Open Source CFD Toolbox           |
|  \\    /   O peration     | Version:  4.1                                   |
|   \\  /    A nd           | Web:      www.OpenFOAM.org                      |
|    \\/     M anipulation  |                                                 |
\*---------------------------------------------------------------------------*/
FoamFile
{
    version     2.0;
    format      ascii;
    class       volVectorField;
    location    "0.072";
    object      U;
}
// * * * * * * * * * * * * * * * * * * * * * * * * * * * * * * * * * * * * * //

dimensions      [0 1 -1 0 0 0 0];

internalField   nonuniform List<vector> 
1600
(
(1.34497e-05 -1.49442e-05 0)
(9.76854e-06 3.44737e-05 0)
(-8.63168e-05 0.000123816 0)
(-0.000295607 0.00022683 0)
(-0.000621082 0.000328056 0)
(-0.00105379 0.000418697 0)
(-0.00157813 0.000493847 0)
(-0.00217491 0.000551031 0)
(-0.00282337 0.000589314 0)
(-0.00350246 0.000608755 0)
(-0.00419167 0.000610051 0)
(-0.00487159 0.000594312 0)
(-0.00552421 0.000562909 0)
(-0.00613321 0.00051738 0)
(-0.00668399 0.000459368 0)
(-0.00716387 0.000390585 0)
(-0.00756204 0.000312794 0)
(-0.0078697 0.000227803 0)
(-0.00808001 0.000137465 0)
(-0.0081882 4.36823e-05 0)
(-0.00819157 -5.15894e-05 0)
(-0.00808961 -0.000146335 0)
(-0.00788396 -0.000238484 0)
(-0.00757855 -0.000325914 0)
(-0.00717963 -0.00040647 0)
(-0.00669576 -0.000477983 0)
(-0.00613786 -0.000538309 0)
(-0.00551914 -0.000585374 0)
(-0.00485503 -0.000617233 0)
(-0.00416301 -0.000632145 0)
(-0.00346237 -0.00062867 0)
(-0.00277385 -0.000605789 0)
(-0.00211916 -0.000563069 0)
(-0.00152023 -0.000500885 0)
(-0.000998264 -0.000420748 0)
(-0.000572285 -0.000325814 0)
(-0.000257079 -0.000221693 0)
(-6.01178e-05 -0.000117787 0)
(2.35587e-05 -2.98047e-05 0)
(1.67978e-05 1.6977e-05 0)
(-3.82421e-05 -1.3782e-05 0)
(-0.000219081 0.000209021 0)
(-0.000634116 0.000580022 0)
(-0.00132775 0.00100098 0)
(-0.00230699 0.00141317 0)
(-0.00355117 0.00178193 0)
(-0.00502299 0.00208752 0)
(-0.00667532 0.00231972 0)
(-0.00845606 0.00247448 0)
(-0.0103115 0.00255182 0)
(-0.0121886 0.00255442 0)
(-0.0140365 0.00248672 0)
(-0.0158078 0.00235427 0)
(-0.0174589 0.00216336 0)
(-0.0189511 0.00192077 0)
(-0.0202502 0.00163355 0)
(-0.0213273 0.00130904 0)
(-0.0221587 0.000954718 0)
(-0.0227262 0.000578297 0)
(-0.0230169 0.000187667 0)
(-0.0230239 -0.000209055 0)
(-0.0227458 -0.000603527 0)
(-0.0221875 -0.000987183 0)
(-0.0213597 -0.00135126 0)
(-0.0202794 -0.00168688 0)
(-0.0189696 -0.00198512 0)
(-0.0174597 -0.00223717 0)
(-0.0157849 -0.00243452 0)
(-0.0139861 -0.00256921 0)
(-0.0121095 -0.00263414 0)
(-0.0102055 -0.00262347 0)
(-0.00832806 -0.00253308 0)
(-0.00653296 -0.00236132 0)
(-0.00487603 -0.0021098 0)
(-0.00341039 -0.00178481 0)
(-0.00218285 -0.00139919 0)
(-0.00122893 -0.000975429 0)
(-0.000565972 -0.00055058 0)
(-0.000182464 -0.000184783 0)
(-2.90916e-05 2.4602e-05 0)
(-0.000130468 7.90011e-05 0)
(-0.000600099 0.000617275 0)
(-0.00142518 0.00138924 0)
(-0.00265455 0.00223663 0)
(-0.0042934 0.0030581 0)
(-0.00631119 0.00379059 0)
(-0.00865437 0.00439651 0)
(-0.011255 0.00485557 0)
(-0.0140373 0.00515915 0)
(-0.0169224 0.0053066 0)
(-0.0198317 0.0053027 0)
(-0.0226892 0.0051559 0)
(-0.0254239 0.00487708 0)
(-0.0279701 0.0044788 0)
(-0.0302689 0.00397469 0)
(-0.0322688 0.00337914 0)
(-0.0339256 0.0027071 0)
(-0.0352035 0.00197398 0)
(-0.0360747 0.00119559 0)
(-0.0365199 0.000388212 0)
(-0.0365287 -0.000431465 0)
(-0.0360993 -0.00124629 0)
(-0.0352391 -0.00203868 0)
(-0.0339648 -0.00279072 0)
(-0.0323023 -0.00348425 0)
(-0.0302867 -0.00410113 0)
(-0.0279627 -0.00462351 0)
(-0.0253833 -0.00503421 0)
(-0.0226104 -0.00531727 0)
(-0.0197129 -0.00545857 0)
(-0.0167663 -0.00544663 0)
(-0.0138506 -0.00527361 0)
(-0.0110483 -0.00493666 0)
(-0.00844116 -0.00443959 0)
(-0.00610652 -0.00379529 0)
(-0.00411203 -0.00302915 0)
(-0.00250895 -0.00218402 0)
(-0.00132354 -0.00132786 0)
(-0.000544501 -0.00056535 0)
(-0.000116076 -5.52264e-05 0)
(-0.000240338 0.000286115 0)
(-0.00104788 0.00131069 0)
(-0.0023281 0.00261284 0)
(-0.00412134 0.00399161 0)
(-0.00642337 0.00530998 0)
(-0.00919116 0.00647824 0)
(-0.0123559 0.00744072 0)
(-0.0158322 0.0081661 0)
(-0.0195247 0.00864042 0)
(-0.0233344 0.008862 0)
(-0.0271622 0.00883778 0)
(-0.0309121 0.00858079 0)
(-0.0344935 0.00810819 0)
(-0.0378232 0.00744004 0)
(-0.0408258 0.00659838 0)
(-0.0434354 0.00560665 0)
(-0.0455957 0.00448931 0)
(-0.0472607 0.00327167 0)
(-0.0483951 0.00197979 0)
(-0.0489741 0.00064046 0)
(-0.0489846 -0.000718813 0)
(-0.0484244 -0.00206979 0)
(-0.0473033 -0.0033836 0)
(-0.0456426 -0.00463083 0)
(-0.0434756 -0.0057818 0)
(-0.0408474 -0.0068069 0)
(-0.0378148 -0.00767709 0)
(-0.0344456 -0.00836457 0)
(-0.0308182 -0.00884364 0)
(-0.0270201 -0.00909171 0)
(-0.0231468 -0.00909065 0)
(-0.0192993 -0.00882834 0)
(-0.0155814 -0.00830075 0)
(-0.0120958 -0.00751447 0)
(-0.00893972 -0.00649013 0)
(-0.0061988 -0.00526693 0)
(-0.00393939 -0.003909 0)
(-0.00219966 -0.00251397 0)
(-0.000976646 -0.00122504 0)
(-0.000221491 -0.000246028 0)
(-0.000355762 0.000616283 0)
(-0.00151743 0.00231311 0)
(-0.00326953 0.0042835 0)
(-0.00563729 0.00629909 0)
(-0.00860117 0.00819607 0)
(-0.0121022 0.00986257 0)
(-0.0160553 0.0112267 0)
(-0.0203581 0.012247 0)
(-0.0248982 0.0129042 0)
(-0.029559 0.0131959 0)
(-0.0342243 0.0131316 0)
(-0.0387815 0.0127295 0)
(-0.0431244 0.0120139 0)
(-0.047155 0.0110136 0)
(-0.0507847 0.00976031 0)
(-0.0539362 0.008288 0)
(-0.056543 0.0066323 0)
(-0.0585511 0.00483016 0)
(-0.0599189 0.00291969 0)
(-0.0606174 0.000940073 0)
(-0.060631 -0.00106842 0)
(-0.0599575 -0.00306452 0)
(-0.0586081 -0.00500603 0)
(-0.0566082 -0.00685009 0)
(-0.0539968 -0.00855346 0)
(-0.050827 -0.0100731 0)
(-0.0471651 -0.011367 0)
(-0.0430909 -0.012395 0)
(-0.0386961 -0.01312 0)
(-0.0340834 -0.0135096 0)
(-0.0293647 -0.013538 0)
(-0.0246581 -0.0131883 0)
(-0.0200856 -0.0124547 0)
(-0.015768 -0.0113466 0)
(-0.0118206 -0.00989234 0)
(-0.00834635 -0.00814474 0)
(-0.00542822 -0.0061877 0)
(-0.00312005 -0.00414482 0)
(-0.00143341 -0.00218983 0)
(-0.000333124 -0.00055733 0)
(-0.000471022 0.0010701 0)
(-0.00198681 0.0036303 0)
(-0.00421193 0.00641224 0)
(-0.00715399 0.00917165 0)
(-0.0107745 0.0117263 0)
(-0.0149958 0.0139475 0)
(-0.0197144 0.0157508 0)
(-0.0248108 0.0170861 0)
(-0.0301559 0.0179305 0)
(-0.0356174 0.0182817 0)
(-0.0410638 0.0181524 0)
(-0.0463683 0.017567 0)
(-0.0514116 0.0165579 0)
(-0.0560834 0.0151637 0)
(-0.0602848 0.013427 0)
(-0.0639285 0.0113937 0)
(-0.0669404 0.00911188 0)
(-0.0692599 0.00663166 0)
(-0.0708403 0.00400466 0)
(-0.0716491 0.00128405 0)
(-0.0716689 -0.0014756 0)
(-0.070897 -0.00421832 0)
(-0.0693459 -0.00688699 0)
(-0.0670437 -0.00942356 0)
(-0.0640341 -0.0117696 0)
(-0.060376 -0.013867 0)
(-0.0561437 -0.015659 0)
(-0.0514262 -0.0170915 0)
(-0.0463263 -0.0181146 0)
(-0.0409589 -0.0186848 0)
(-0.0354498 -0.0187675 0)
(-0.0299323 -0.0183395 0)
(-0.0245442 -0.0173929 0)
(-0.0194235 -0.0159388 0)
(-0.0147029 -0.0140124 0)
(-0.0105038 -0.0116784 0)
(-0.00692766 -0.00903766 0)
(-0.00404738 -0.00623522 0)
(-0.0018928 -0.00346785 0)
(-0.000445216 -0.000990551 0)
(-0.000583798 0.00164479 0)
(-0.00244693 0.00525967 0)
(-0.00513911 0.00899925 0)
(-0.00864991 0.0126112 0)
(-0.0129202 0.0159019 0)
(-0.0178511 0.0187314 0)
(-0.0233197 0.0210063 0)
(-0.0291878 0.0226711 0)
(-0.0353098 0.0237012 0)
(-0.0415379 0.0240957 0)
(-0.0477268 0.0238724 0)
(-0.0537369 0.0230627 0)
(-0.0594376 0.0217086 0)
(-0.0647085 0.0198592 0)
(-0.0694417 0.0175695 0)
(-0.0735425 0.0148984 0)
(-0.0769302 0.0119076 0)
(-0.079539 0.00866158 0)
(-0.0813182 0.00522667 0)
(-0.0822326 0.00167124 0)
(-0.0822629 -0.00193454 0)
(-0.0814059 -0.00551877 0)
(-0.079675 -0.00900803 0)
(-0.0771 -0.0123278 0)
(-0.0737279 -0.015403 0)
(-0.0696221 -0.0181589 0)
(-0.0648629 -0.0205227 0)
(-0.0595468 -0.0224247 0)
(-0.0537854 -0.0238008 0)
(-0.0477042 -0.0245948 0)
(-0.041441 -0.0247617 0)
(-0.0351428 -0.0242711 0)
(-0.0289625 -0.0231109 0)
(-0.0230548 -0.0212928 0)
(-0.0175708 -0.0188565 0)
(-0.0126512 -0.0158763 0)
(-0.00841839 -0.0124669 0)
(-0.00496665 -0.00878988 0)
(-0.00234628 -0.00505933 0)
(-0.000555551 -0.00154387 0)
(-0.000693626 0.00233664 0)
(-0.00289587 0.00719548 0)
(-0.00604725 0.01204 0)
(-0.0101199 0.0166148 0)
(-0.0150332 0.0207202 0)
(-0.020666 0.0242102 0)
(-0.0268739 0.0269864 0)
(-0.0334995 0.0289914 0)
(-0.04038 0.0302014 0)
(-0.0473521 0.0306194 0)
(-0.0542573 0.0302696 0)
(-0.0609445 0.0291925 0)
(-0.0672726 0.0274406 0)
(-0.0731128 0.0250753 0)
(-0.0783498 0.0221648 0)
(-0.0828827 0.0187821 0)
(-0.0866258 0.0150036 0)
(-0.0895091 0.010909 0)
(-0.0914787 0.00658046 0)
(-0.0924971 0.00210236 0)
(-0.0925434 -0.0024386 0)
(-0.0916139 -0.00695362 0)
(-0.0897219 -0.011352 0)
(-0.0868985 -0.0155416 0)
(-0.0831925 -0.0194296 0)
(-0.0786706 -0.0229235 0)
(-0.0734176 -0.0259327 0)
(-0.0675355 -0.0283709 0)
(-0.0611435 -0.0301577 0)
(-0.0543761 -0.0312229 0)
(-0.0473819 -0.0315092 0)
(-0.0403207 -0.0309766 0)
(-0.0333606 -0.0296075 0)
(-0.0266731 -0.0274112 0)
(-0.0204286 -0.0244299 0)
(-0.0147887 -0.0207444 0)
(-0.00989873 -0.0164796 0)
(-0.00587617 -0.0118098 0)
(-0.00279292 -0.006962 0)
(-0.000663903 -0.00221473 0)
(-0.000801013 0.00314227 0)
(-0.00333549 0.00943194 0)
(-0.00693943 0.0155289 0)
(-0.0115683 0.0211781 0)
(-0.0171196 0.0261778 0)
(-0.023449 0.0303799 0)
(-0.0303896 0.0336856 0)
(-0.0377639 0.0360389 0)
(-0.0453908 0.03742 0)
(-0.053092 0.0378384 0)
(-0.0606956 0.0373272 0)
(-0.0680394 0.0359375 0)
(-0.0749735 0.0337343 0)
(-0.0813615 0.0307926 0)
(-0.0870819 0.0271948 0)
(-0.092029 0.0230292 0)
(-0.096113 0.0183878 0)
(-0.0992608 0.0133664 0)
(-0.101416 0.00806333 0)
(-0.102539 0.00257984 0)
(-0.102609 -0.00298028 0)
(-0.101619 -0.00851069 0)
(-0.0995829 -0.0139027 0)
(-0.0965323 -0.0190458 0)
(-0.0925169 -0.0238283 0)
(-0.0876051 -0.0281389 0)
(-0.0818846 -0.0318682 0)
(-0.075462 -0.0349111 0)
(-0.0684621 -0.0371699 0)
(-0.0610276 -0.0385577 0)
(-0.053317 -0.039003 0)
(-0.0455026 -0.0384542 0)
(-0.0377674 -0.0368848 0)
(-0.0303006 -0.0342996 0)
(-0.0232928 -0.0307398 0)
(-0.0169285 -0.0262895 0)
(-0.0113774 -0.0210805 0)
(-0.00678184 -0.0152965 0)
(-0.00323599 -0.00917443 0)
(-0.00077112 -0.00300131 0)
(-0.000906933 0.00405933 0)
(-0.00376951 0.0119649 0)
(-0.00782218 0.0194622 0)
(-0.0130042 0.0262979 0)
(-0.0191912 0.0322719 0)
(-0.0262146 0.0372377 0)
(-0.0338845 0.0410998 0)
(-0.0420019 0.0438075 0)
(-0.0503674 0.0453483 0)
(-0.0587867 0.0457415 0)
(-0.0670753 0.0450315 0)
(-0.0750603 0.0432825 0)
(-0.0825836 0.0405736 0)
(-0.0895023 0.036995 0)
(-0.09569 0.0326449 0)
(-0.101037 0.0276274 0)
(-0.105451 0.0220512 0)
(-0.108856 0.0160285 0)
(-0.111195 0.00967455 0)
(-0.112425 0.00310758 0)
(-0.112525 -0.00355115 0)
(-0.111487 -0.0101774 0)
(-0.109324 -0.0166441 0)
(-0.106067 -0.0228218 0)
(-0.101765 -0.0285793 0)
(-0.096487 -0.0337854 0)
(-0.0903226 -0.0383104 0)
(-0.0833812 -0.0420292 0)
(-0.0757924 -0.0448246 0)
(-0.0677056 -0.046591 0)
(-0.0592887 -0.04724 0)
(-0.0507259 -0.0467051 0)
(-0.0422155 -0.0449484 0)
(-0.0339651 -0.0419663 0)
(-0.0261869 -0.0377959 0)
(-0.0190896 -0.0325209 0)
(-0.0128689 -0.026277 0)
(-0.00769352 -0.0192541 0)
(-0.00368094 -0.0116978 0)
(-0.000878594 -0.00390317 0)
(-0.00101255 0.00508669 0)
(-0.00420244 0.0147924 0)
(-0.00870352 0.0238381 0)
(-0.014439 0.0319733 0)
(-0.0212622 0.0390017 0)
(-0.0289797 0.0447822 0)
(-0.0373774 0.0492263 0)
(-0.0462343 0.0522923 0)
(-0.055332 0.0539792 0)
(-0.0644604 0.0543189 0)
(-0.073422 0.0533705 0)
(-0.0820341 0.0512137 0)
(-0.0901311 0.0479439 0)
(-0.0975646 0.0436682 0)
(-0.104204 0.0385017 0)
(-0.109938 0.0325658 0)
(-0.114672 0.025986 0)
(-0.118328 0.0188915 0)
(-0.120848 0.0114146 0)
(-0.12219 0.00369066 0)
(-0.122328 -0.00414164 0)
(-0.121256 -0.0119402 0)
(-0.118983 -0.0195593 0)
(-0.11554 -0.0268503 0)
(-0.110975 -0.033662 0)
(-0.105355 -0.0398424 0)
(-0.0987703 -0.0452404 0)
(-0.091332 -0.0497093 0)
(-0.0831728 -0.0531098 0)
(-0.0744479 -0.0553155 0)
(-0.0653334 -0.0562179 0)
(-0.0560255 -0.0557325 0)
(-0.0467376 -0.0538059 0)
(-0.0376965 -0.0504224 0)
(-0.029137 -0.045611 0)
(-0.0212936 -0.0394518 0)
(-0.0143901 -0.0320804 0)
(-0.00862296 -0.0236913 0)
(-0.00413415 -0.014537 0)
(-0.000987958 -0.00492167 0)
(-0.00111905 0.00622456 0)
(-0.00463889 0.0179154 0)
(-0.00959181 0.0286581 0)
(-0.0158844 0.0382059 0)
(-0.0233471 0.0463685 0)
(-0.0317607 0.0530133 0)
(-0.040886 0.0580628 0)
(-0.0504793 0.0614887 0)
(-0.0603026 0.0633048 0)
(-0.07013 0.06356 0)
(-0.0797513 0.0623311 0)
(-0.0889747 0.0597162 0)
(-0.097628 0.0558295 0)
(-0.105559 0.0507967 0)
(-0.112633 0.0447515 0)
(-0.118739 0.0378329 0)
(-0.123781 0.0301842 0)
(-0.127681 0.0219516 0)
(-0.13038 0.0132845 0)
(-0.131836 0.00433503 0)
(-0.132022 -0.00474089 0)
(-0.130929 -0.0137836 0)
(-0.128566 -0.0226291 0)
(-0.12496 -0.0311094 0)
(-0.120157 -0.0390532 0)
(-0.114223 -0.0462867 0)
(-0.107245 -0.0526366 0)
(-0.0993347 -0.0579324 0)
(-0.0906268 -0.0620112 0)
(-0.0812804 -0.0647222 0)
(-0.0714792 -0.0659336 0)
(-0.0614305 -0.0655391 0)
(-0.051363 -0.0634655 0)
(-0.0415229 -0.0596806 0)
(-0.0321689 -0.054201 0)
(-0.0235631 -0.0470988 0)
(-0.0159587 -0.0385066 0)
(-0.00958238 -0.028621 0)
(-0.00460231 -0.0177007 0)
(-0.00110092 -0.00605997 0)
(-0.0012276 0.0074744 0)
(-0.00508335 0.0213371 0)
(-0.0104951 0.0339265 0)
(-0.0173518 0.0449999 0)
(-0.0254597 0.0543752 0)
(-0.0345726 0.0619318 0)
(-0.0444253 0.0676072 0)
(-0.0547506 0.0713907 0)
(-0.0652905 0.0733156 0)
(-0.0758034 0.0734517 0)
(-0.0860671 0.0718972 0)
(-0.0958815 0.0687719 0)
(-0.105069 0.0642114 0)
(-0.113474 0.058362 0)
(-0.120962 0.051377 0)
(-0.127421 0.0434145 0)
(-0.132755 0.0346356 0)
(-0.136888 0.0252037 0)
(-0.139762 0.0152847 0)
(-0.141334 0.0050472 0)
(-0.141576 -0.00533653 0)
(-0.140479 -0.0156898 0)
(-0.138047 -0.025831 0)
(-0.134305 -0.0355732 0)
(-0.129294 -0.0447247 0)
(-0.123078 -0.0530899 0)
(-0.11574 -0.0604716 0)
(-0.107389 -0.0666744 0)
(-0.0981601 -0.0715088 0)
(-0.0882149 -0.0747971 0)
(-0.0777431 -0.0763801 0)
(-0.066962 -0.076125 0)
(-0.0561152 -0.0739343 0)
(-0.045469 -0.0697541 0)
(-0.0353065 -0.0635835 0)
(-0.0259191 -0.0554821 0)
(-0.0175918 -0.045576 0)
(-0.0105838 -0.0340609 0)
(-0.00509196 -0.0212015 0)
(-0.00121915 -0.00732312 0)
(-0.00133929 0.00883884 0)
(-0.00554006 0.0250635 0)
(-0.0114209 0.0396503 0)
(-0.0188515 0.0523617 0)
(-0.0276119 0.063026 0)
(-0.0374278 0.0715384 0)
(-0.0480063 0.0778557 0)
(-0.0590561 0.0819896 0)
(-0.0702993 0.0839979 0)
(-0.0814785 0.0839757 0)
(-0.0923605 0.082047 0)
(-0.102738 0.0783567 0)
(-0.112429 0.0730644 0)
(-0.121278 0.0663393 0)
(-0.12915 0.0583559 0)
(-0.135935 0.049292 0)
(-0.141541 0.0393266 0)
(-0.145893 0.0286403 0)
(-0.148933 0.0174146 0)
(-0.150621 0.00583377 0)
(-0.150928 -0.00591461 0)
(-0.149842 -0.0176381 0)
(-0.147366 -0.0291382 0)
(-0.143519 -0.0402099 0)
(-0.138337 -0.0506415 0)
(-0.131878 -0.0602152 0)
(-0.124221 -0.0687095 0)
(-0.11547 -0.075902 0)
(-0.105758 -0.0815744 0)
(-0.095246 -0.0855185 0)
(-0.084128 -0.0875434 0)
(-0.0726302 -0.0874852 0)
(-0.06101 -0.0852159 0)
(-0.0495536 -0.0806545 0)
(-0.0385697 -0.0737768 0)
(-0.0283804 -0.0646243 0)
(-0.0193051 -0.0533124 0)
(-0.0116384 -0.0400332 0)
(-0.0056094 -0.0250558 0)
(-0.00134427 -0.00871789 0)
(-0.00145518 0.0103216 0)
(-0.00601298 0.0291026 0)
(-0.0123761 0.045839 0)
(-0.0203926 0.0602993 0)
(-0.0298141 0.0723255 0)
(-0.0403355 0.0818324 0)
(-0.0516354 0.0888014 0)
(-0.0633975 0.0932719 0)
(-0.0753236 0.0953318 0)
(-0.0871413 0.0951066 0)
(-0.0986076 0.0927505 0)
(-0.109509 0.0884375 0)
(-0.119664 0.0823545 0)
(-0.128914 0.0746956 0)
(-0.137131 0.065658 0)
(-0.144207 0.0554398 0)
(-0.150054 0.0442381 0)
(-0.154602 0.0322497 0)
(-0.157796 0.0196713 0)
(-0.159596 0.00670105 0)
(-0.159976 -0.00645956 0)
(-0.158919 -0.0196038 0)
(-0.156426 -0.032518 0)
(-0.15251 -0.0449802 0)
(-0.147202 -0.0567593 0)
(-0.14055 -0.0676157 0)
(-0.132627 -0.0773029 0)
(-0.123528 -0.0855701 0)
(-0.113382 -0.0921676 0)
(-0.102348 -0.096853 0)
(-0.0906202 -0.0993995 0)
(-0.0784318 -0.0996059 0)
(-0.0660527 -0.0973078 0)
(-0.0537883 -0.09239 0)
(-0.0419736 -0.0847979 0)
(-0.0309628 -0.0745492 0)
(-0.0211126 -0.0617427 0)
(-0.0127568 -0.0465635 0)
(-0.00616052 -0.0292833 0)
(-0.00147782 -0.0102527 0)
(-0.00157629 0.0119275 0)
(-0.00650599 0.0334643 0)
(-0.0133674 0.0525037 0)
(-0.0219835 0.0688219 0)
(-0.0320743 0.0822777 0)
(-0.0433019 0.0928108 0)
(-0.0553141 0.100433 0)
(-0.0677689 0.105217 0)
(-0.080348 0.107289 0)
(-0.0927652 0.106809 0)
(-0.104769 0.103966 0)
(-0.116143 0.0989699 0)
(-0.126704 0.0920362 0)
(-0.136302 0.0833868 0)
(-0.14481 0.073243 0)
(-0.152128 0.0618235 0)
(-0.158175 0.0493435 0)
(-0.162888 0.0360152 0)
(-0.166215 0.0220487 0)
(-0.168121 0.00765442 0)
(-0.168577 -0.00695422 0)
(-0.167569 -0.0215584 0)
(-0.165091 -0.0359313 0)
(-0.161149 -0.0498357 0)
(-0.155767 -0.0630226 0)
(-0.148983 -0.0752312 0)
(-0.140859 -0.0861897 0)
(-0.131481 -0.0956179 0)
(-0.120968 -0.103232 0)
(-0.109472 -0.108752 0)
(-0.0971865 -0.11191 0)
(-0.084348 -0.112461 0)
(-0.0712366 -0.110198 0)
(-0.0581759 -0.104962 0)
(-0.045527 -0.0966604 0)
(-0.0336781 -0.0852798 0)
(-0.0230261 -0.0708955 0)
(-0.0139481 -0.0536806 0)
(-0.00675082 -0.0339068 0)
(-0.00162126 -0.0119376 0)
(-0.00170368 0.0136622 0)
(-0.00702299 0.0381605 0)
(-0.0144011 0.0596574 0)
(-0.0236318 0.0779387 0)
(-0.0343994 0.0928849 0)
(-0.0463298 0.104466 0)
(-0.0590384 0.112732 0)
(-0.0721566 0.117797 0)
(-0.0853464 0.119829 0)
(-0.098309 0.119033 0)
(-0.110787 0.11564 0)
(-0.122563 0.109895 0)
(-0.133459 0.102049 0)
(-0.143329 0.0923547 0)
(-0.152058 0.0810575 0)
(-0.159556 0.0683974 0)
(-0.165749 0.0546071 0)
(-0.170584 0.0399127 0)
(-0.174016 0.0245361 0)
(-0.176013 0.00869767 0)
(-0.176549 -0.00738006 0)
(-0.175608 -0.0234689 0)
(-0.173178 -0.0393313 0)
(-0.169262 -0.0547175 0)
(-0.163869 -0.0693625 0)
(-0.157027 -0.0829857 0)
(-0.148784 -0.0952901 0)
(-0.139213 -0.105966 0)
(-0.128417 -0.114692 0)
(-0.116541 -0.121148 0)
(-0.103771 -0.125019 0)
(-0.0903412 -0.12601 0)
(-0.0765408 -0.12386 0)
(-0.0627087 -0.118361 0)
(-0.0492319 -0.109372 0)
(-0.0365339 -0.0968362 0)
(-0.025055 -0.0807993 0)
(-0.0152206 -0.0614151 0)
(-0.00738544 -0.0389517 0)
(-0.00177598 -0.013784 0)
(-0.00183849 0.0155326 0)
(-0.00756818 0.043205 0)
(-0.0154839 0.067314 0)
(-0.0253447 0.0876586 0)
(-0.0367943 0.104146 0)
(-0.0494188 0.116785 0)
(-0.0627987 0.125671 0)
(-0.0765381 0.130968 0)
(-0.0902803 0.132898 0)
(-0.103716 0.131715 0)
(-0.116584 0.127698 0)
(-0.128671 0.121135 0)
(-0.139806 0.112316 0)
(-0.149855 0.101524 0)
(-0.158716 0.0890327 0)
(-0.16631 0.0751022 0)
(-0.17258 0.0599817 0)
(-0.17748 0.0439098 0)
(-0.180978 0.0271174 0)
(-0.183045 0.00983217 0)
(-0.183659 -0.00771756 0)
(-0.182803 -0.0252976 0)
(-0.180462 -0.0426632 0)
(-0.176627 -0.0595551 0)
(-0.171298 -0.0756952 0)
(-0.164487 -0.0907848 0)
(-0.156225 -0.104503 0)
(-0.146567 -0.11651 0)
(-0.135599 -0.126448 0)
(-0.123448 -0.133949 0)
(-0.110289 -0.138646 0)
(-0.0963519 -0.140188 0)
(-0.0819268 -0.138251 0)
(-0.0673662 -0.132565 0)
(-0.0530815 -0.122928 0)
(-0.0395324 -0.109233 0)
(-0.0272059 -0.0914809 0)
(-0.0165815 -0.0697989 0)
(-0.00806917 -0.0444454 0)
(-0.00194332 -0.0158047 0)
(-0.00198205 0.0175468 0)
(-0.00814633 0.0486132 0)
(-0.016623 0.0754888 0)
(-0.0271296 0.0979893 0)
(-0.0392631 0.116057 0)
(-0.0525652 0.129746 0)
(-0.0665792 0.13921 0)
(-0.0808813 0.144676 0)
(-0.0950975 0.146423 0)
(-0.108911 0.144769 0)
(-0.122061 0.140046 0)
(-0.134342 0.132591 0)
(-0.145596 0.122737 0)
(-0.155705 0.1108 0)
(-0.164584 0.0970815 0)
(-0.172172 0.0818625 0)
(-0.178429 0.065407 0)
(-0.183323 0.0479636 0)
(-0.186834 0.0297695 0)
(-0.188941 0.0110559 0)
(-0.189627 -0.00794681 0)
(-0.188874 -0.0270025 0)
(-0.186661 -0.0458636 0)
(-0.182972 -0.0642652 0)
(-0.177793 -0.0819198 0)
(-0.171119 -0.0985137 0)
(-0.162958 -0.113705 0)
(-0.153344 -0.127122 0)
(-0.142339 -0.13837 0)
(-0.130048 -0.147031 0)
(-0.116628 -0.152683 0)
(-0.102295 -0.154905 0)
(-0.0873361 -0.153303 0)
(-0.0721132 -0.147531 0)
(-0.057059 -0.137314 0)
(-0.0426697 -0.122476 0)
(-0.0294822 -0.102963 0)
(-0.0180365 -0.0788632 0)
(-0.0088065 -0.0504168 0)
(-0.00212459 -0.0180139 0)
(-0.00213593 0.0197142 0)
(-0.00876309 0.0544028 0)
(-0.0178269 0.0841974 0)
(-0.0289945 0.108936 0)
(-0.0418088 0.128604 0)
(-0.0557617 0.143317 0)
(-0.0703568 0.153296 0)
(-0.0851425 0.158842 0)
(-0.0997297 0.16031 0)
(-0.113797 0.158085 0)
(-0.127091 0.152564 0)
(-0.13942 0.144139 0)
(-0.150643 0.133188 0)
(-0.160664 0.120064 0)
(-0.169421 0.105096 0)
(-0.176877 0.0885843 0)
(-0.18301 0.0708069 0)
(-0.18781 0.052019 0)
(-0.191267 0.0324606 0)
(-0.193374 0.0123622 0)
(-0.194118 -0.00804832 0)
(-0.193482 -0.0285378 0)
(-0.191442 -0.0488607 0)
(-0.187971 -0.0687514 0)
(-0.18304 -0.0879177 0)
(-0.176623 -0.106035 0)
(-0.168706 -0.122743 0)
(-0.159294 -0.137642 0)
(-0.148418 -0.150296 0)
(-0.136155 -0.16024 0)
(-0.122634 -0.166985 0)
(-0.108052 -0.170037 0)
(-0.0926855 -0.168919 0)
(-0.076896 -0.163193 0)
(-0.0611352 -0.152493 0)
(-0.0459345 -0.136559 0)
(-0.0318837 -0.115262 0)
(-0.0195899 -0.0886374 0)
(-0.0096016 -0.0568959 0)
(-0.00232108 -0.0204268 0)
(-0.00230208 0.0220459 0)
(-0.0094254 0.0605938 0)
(-0.0191053 0.0934561 0)
(-0.0309481 0.120501 0)
(-0.0444332 0.141769 0)
(-0.0589966 0.157451 0)
(-0.0740997 0.167854 0)
(-0.0892642 0.173368 0)
(-0.104089 0.174436 0)
(-0.118255 0.171524 0)
(-0.13152 0.165103 0)
(-0.143714 0.155625 0)
(-0.154722 0.143517 0)
(-0.164475 0.129171 0)
(-0.172942 0.112943 0)
(-0.180112 0.0951531 0)
(-0.185989 0.0760882 0)
(-0.190584 0.0560075 0)
(-0.193906 0.0351493 0)
(-0.195961 0.0137387 0)
(-0.196742 -0.00800413 0)
(-0.196235 -0.0298545 0)
(-0.194412 -0.0515747 0)
(-0.191237 -0.0729044 0)
(-0.186663 -0.0935521 0)
(-0.180643 -0.113188 0)
(-0.173134 -0.131437 0)
(-0.164108 -0.147875 0)
(-0.153562 -0.162028 0)
(-0.141533 -0.173378 0)
(-0.128114 -0.181368 0)
(-0.113472 -0.185422 0)
(-0.0978619 -0.184964 0)
(-0.0816389 -0.17945 0)
(-0.0652655 -0.168403 0)
(-0.0493061 -0.151455 0)
(-0.0344052 -0.128383 0)
(-0.0212443 -0.099147 0)
(-0.0104583 -0.0639128 0)
(-0.00253404 -0.0230601 0)
(-0.00248292 0.0245555 0)
(-0.0101418 0.0672092 0)
(-0.0204704 0.103282 0)
(-0.0330003 0.132681 0)
(-0.0471362 0.15552 0)
(-0.062252 0.172084 0)
(-0.0777646 0.182785 0)
(-0.0931706 0.188123 0)
(-0.108063 0.188645 0)
(-0.122131 0.184913 0)
(-0.135155 0.177478 0)
(-0.146992 0.16686 0)
(-0.157562 0.153538 0)
(-0.166834 0.137946 0)
(-0.174809 0.120465 0)
(-0.181511 0.101432 0)
(-0.186975 0.0811387 0)
(-0.191236 0.0598451 0)
(-0.194325 0.0377827 0)
(-0.196261 0.0151656 0)
(-0.197049 -0.00779925 0)
(-0.196678 -0.0309021 0)
(-0.195118 -0.0539194 0)
(-0.192319 -0.0766026 0)
(-0.188222 -0.0986683 0)
(-0.182754 -0.119787 0)
(-0.175841 -0.139576 0)
(-0.167417 -0.157591 0)
(-0.157435 -0.173324 0)
(-0.145887 -0.186202 0)
(-0.132819 -0.195599 0)
(-0.118355 -0.200846 0)
(-0.102716 -0.201257 0)
(-0.0862378 -0.196162 0)
(-0.0693859 -0.18495 0)
(-0.0527518 -0.167118 0)
(-0.0370355 -0.142318 0)
(-0.0229998 -0.110411 0)
(-0.0113797 -0.0714969 0)
(-0.0027647 -0.0259314 0)
(-0.00268145 0.0272591 0)
(-0.0109228 0.0742752 0)
(-0.0219362 0.11369 0)
(-0.0351613 0.145466 0)
(-0.0499147 0.16981 0)
(-0.065501 0.187127 0)
(-0.0812916 0.197961 0)
(-0.0967623 0.202943 0)
(-0.111507 0.202745 0)
(-0.125235 0.198037 0)
(-0.137757 0.189462 0)
(-0.148971 0.177616 0)
(-0.15884 0.163033 0)
(-0.167377 0.146184 0)
(-0.174627 0.127476 0)
(-0.180651 0.107258 0)
(-0.185519 0.0858258 0)
(-0.189296 0.0634316 0)
(-0.192035 0.0402954 0)
(-0.193775 0.0166147 0)
(-0.194531 -0.00742335 0)
(-0.194297 -0.0316303 0)
(-0.19304 -0.0558038 0)
(-0.190705 -0.0797149 0)
(-0.187213 -0.103095 0)
(-0.182466 -0.125625 0)
(-0.176357 -0.146921 0)
(-0.168779 -0.166524 0)
(-0.159634 -0.183898 0)
(-0.148859 -0.19842 0)
(-0.136441 -0.20939 0)
(-0.122448 -0.216041 0)
(-0.107051 -0.217562 0)
(-0.0905531 -0.213139 0)
(-0.0734068 -0.201998 0)
(-0.0562228 -0.183466 0)
(-0.0397546 -0.157039 0)
(-0.024853 -0.12244 0)
(-0.0123684 -0.0796758 0)
(-0.00301413 -0.0290599 0)
(-0.00290132 0.0301766 0)
(-0.0117811 0.0818222 0)
(-0.0235189 0.124696 0)
(-0.0374405 0.158836 0)
(-0.052759 0.184572 0)
(-0.0687024 0.202461 0)
(-0.0845973 0.213212 0)
(-0.0999061 0.217616 0)
(-0.114235 0.216491 0)
(-0.127325 0.210632 0)
(-0.139033 0.200785 0)
(-0.149308 0.187625 0)
(-0.158168 0.171741 0)
(-0.165679 0.153644 0)
(-0.171936 0.13376 0)
(-0.177043 0.112447 0)
(-0.18111 0.0899966 0)
(-0.184233 0.06665 0)
(-0.186491 0.0426087 0)
(-0.187943 0.0180476 0)
(-0.188617 -0.00687266 0)
(-0.188513 -0.0319917 0)
(-0.1876 -0.0571357 0)
(-0.185812 -0.0821033 0)
(-0.183057 -0.10665 0)
(-0.179212 -0.130475 0)
(-0.174136 -0.153202 0)
(-0.167673 -0.17437 0)
(-0.159674 -0.19342 0)
(-0.15001 -0.209685 0)
(-0.138597 -0.222392 0)
(-0.125431 -0.230673 0)
(-0.110616 -0.23358 0)
(-0.0943991 -0.23013 0)
(-0.0772048 -0.219356 0)
(-0.0596481 -0.200378 0)
(-0.0425305 -0.172488 0)
(-0.0267952 -0.135229 0)
(-0.0134252 -0.0884736 0)
(-0.00328315 -0.0324653 0)
(-0.00314686 0.0333323 0)
(-0.0127315 0.0898847 0)
(-0.0252355 0.136312 0)
(-0.0398438 0.172755 0)
(-0.0556476 0.199709 0)
(-0.0717921 0.217926 0)
(-0.0875634 0.228321 0)
(-0.102422 0.231877 0)
(-0.116001 0.229584 0)
(-0.128093 0.222381 0)
(-0.138615 0.211124 0)
(-0.147582 0.19657 0)
(-0.155081 0.179365 0)
(-0.161237 0.160051 0)
(-0.166201 0.139074 0)
(-0.170129 0.116789 0)
(-0.173168 0.0934787 0)
(-0.175451 0.0693671 0)
(-0.177083 0.0446307 0)
(-0.178144 0.0194149 0)
(-0.178676 -0.00615209 0)
(-0.178689 -0.0319449 0)
(-0.178151 -0.0578257 0)
(-0.176994 -0.0836286 0)
(-0.17511 -0.109142 0)
(-0.172353 -0.134094 0)
(-0.168547 -0.158128 0)
(-0.163494 -0.180792 0)
(-0.156982 -0.201514 0)
(-0.148811 -0.219593 0)
(-0.138816 -0.234192 0)
(-0.126902 -0.244335 0)
(-0.113083 -0.248931 0)
(-0.0975293 -0.246807 0)
(-0.0806105 -0.236768 0)
(-0.062926 -0.21768 0)
(-0.045313 -0.188574 0)
(-0.0288095 -0.148756 0)
(-0.0145482 -0.0979087 0)
(-0.00357199 -0.0361689 0)
(-0.00342296 0.0367558 0)
(-0.0137901 0.0985013 0)
(-0.0271018 0.148541 0)
(-0.0423676 0.187164 0)
(-0.0585371 0.215084 0)
(-0.074669 0.233308 0)
(-0.0900182 0.243004 0)
(-0.104061 0.245392 0)
(-0.116482 0.241659 0)
(-0.127142 0.232903 0)
(-0.136043 0.2201 0)
(-0.143281 0.204088 0)
(-0.149021 0.185565 0)
(-0.153459 0.165101 0)
(-0.156807 0.143147 0)
(-0.159272 0.120052 0)
(-0.161044 0.0960825 0)
(-0.162289 0.0714355 0)
(-0.163141 0.0462566 0)
(-0.163699 0.0206559 0)
(-0.164022 -0.00527725 0)
(-0.164128 -0.0314584 0)
(-0.163991 -0.0577923 0)
(-0.163538 -0.0841565 0)
(-0.162652 -0.110382 0)
(-0.161168 -0.136235 0)
(-0.15888 -0.161394 0)
(-0.155542 -0.185426 0)
(-0.150884 -0.207765 0)
(-0.14463 -0.22769 0)
(-0.136521 -0.244305 0)
(-0.126354 -0.25654 0)
(-0.114032 -0.26315 0)
(-0.0996164 -0.262754 0)
(-0.0833911 -0.253894 0)
(-0.0659098 -0.235127 0)
(-0.0480253 -0.205156 0)
(-0.0308655 -0.16297 0)
(-0.0157304 -0.107991 0)
(-0.00387976 -0.0401923 0)
(-0.00373462 0.0404835 0)
(-0.0149727 0.107713 0)
(-0.0291267 0.161377 0)
(-0.0449892 0.20197 0)
(-0.0613466 0.230507 0)
(-0.0771731 0.248321 0)
(-0.0917106 0.256901 0)
(-0.104478 0.257746 0)
(-0.115241 0.252272 0)
(-0.123959 0.241749 0)
(-0.130737 0.227276 0)
(-0.135772 0.209768 0)
(-0.139318 0.189967 0)
(-0.141649 0.168458 0)
(-0.14304 0.145688 0)
(-0.143749 0.121992 0)
(-0.144009 0.0976068 0)
(-0.144017 0.0726973 0)
(-0.143933 0.0473715 0)
(-0.143874 0.0216985 0)
(-0.143916 -0.00427608 0)
(-0.144084 -0.0305139 0)
(-0.144361 -0.0569683 0)
(-0.144675 -0.0835666 0)
(-0.144902 -0.110191 0)
(-0.144865 -0.136658 0)
(-0.144331 -0.162691 0)
(-0.143017 -0.187897 0)
(-0.140596 -0.211731 0)
(-0.136711 -0.233471 0)
(-0.131005 -0.252186 0)
(-0.123152 -0.266716 0)
(-0.112919 -0.275672 0)
(-0.100224 -0.277449 0)
(-0.0852251 -0.27029 0)
(-0.0683883 -0.252387 0)
(-0.0505489 -0.222026 0)
(-0.032911 -0.177781 0)
(-0.0169564 -0.118715 0)
(-0.00420345 -0.0445574 0)
(-0.004086 0.0445588 0)
(-0.0162906 0.117562 0)
(-0.0313029 0.174785 0)
(-0.0476481 0.217026 0)
(-0.0639302 0.245705 0)
(-0.0790505 0.262583 0)
(-0.0922689 0.269545 0)
(-0.103187 0.268423 0)
(-0.11169 0.260889 0)
(-0.11787 0.248395 0)
(-0.12196 0.232156 0)
(-0.124275 0.213156 0)
(-0.125167 0.192165 0)
(-0.124989 0.169769 0)
(-0.124081 0.146398 0)
(-0.122749 0.122356 0)
(-0.121261 0.0978461 0)
(-0.119842 0.0729905 0)
(-0.118673 0.0478545 0)
(-0.117888 0.0224615 0)
(-0.117573 -0.00318994 0)
(-0.117767 -0.0291112 0)
(-0.118459 -0.0553077 0)
(-0.119584 -0.0817621 0)
(-0.121017 -0.108415 0)
(-0.122577 -0.135142 0)
(-0.124015 -0.161727 0)
(-0.125018 -0.187832 0)
(-0.125209 -0.212957 0)
(-0.12416 -0.236403 0)
(-0.121411 -0.257228 0)
(-0.116503 -0.27421 0)
(-0.109042 -0.285826 0)
(-0.0987701 -0.290247 0)
(-0.0856656 -0.285389 0)
(-0.0700537 -0.269011 0)
(-0.0527012 -0.238887 0)
(-0.0348584 -0.193047 0)
(-0.018195 -0.130056 0)
(-0.00453611 -0.0492854 0)
(-0.00447836 0.0490328 0)
(-0.0177422 0.128081 0)
(-0.0335887 0.18869 0)
(-0.0502157 0.232103 0)
(-0.0660335 0.260294 0)
(-0.0798992 0.275583 0)
(-0.0911415 0.280344 0)
(-0.0995008 0.276792 0)
(-0.10503 0.26688 0)
(-0.107993 0.25224 0)
(-0.108778 0.234193 0)
(-0.107829 0.213767 0)
(-0.105599 0.19174 0)
(-0.102523 0.168678 0)
(-0.0989941 0.144978 0)
(-0.0953599 0.120901 0)
(-0.0919161 0.0966029 0)
(-0.0889067 0.0721586 0)
(-0.0865255 0.0475852 0)
(-0.0849171 0.022858 0)
(-0.0841783 -0.00207329 0)
(-0.0843572 -0.0272708 0)
(-0.085452 -0.0527934 0)
(-0.0874072 -0.0786816 0)
(-0.0901086 -0.104939 0)
(-0.0933774 -0.131508 0)
(-0.0969628 -0.158246 0)
(-0.100536 -0.184887 0)
(-0.103687 -0.210999 0)
(-0.105927 -0.235938 0)
(-0.106699 -0.258785 0)
(-0.105413 -0.278293 0)
(-0.101494 -0.292832 0)
(-0.0944695 -0.300368 0)
(-0.0840864 -0.298469 0)
(-0.0704549 -0.284404 0)
(-0.054199 -0.255322 0)
(-0.0365602 -0.208545 0)
(-0.019388 -0.141955 0)
(-0.00486374 -0.0543945 0)