/*--------------------------------*- C++ -*----------------------------------*\
| =========                 |                                                 |
| \\      /  F ield         | OpenFOAM: The Open Source CFD Toolbox           |
|  \\    /   O peration     | Version:  4.1                                   |
|   \\  /    A nd           | Web:      www.OpenFOAM.org                      |
|    \\/     M anipulation  |                                                 |
\*---------------------------------------------------------------------------*/
FoamFile
{
    version     2.0;
    format      ascii;
    class       volVectorField;
    location    "0.128";
    object      U;
}
// * * * * * * * * * * * * * * * * * * * * * * * * * * * * * * * * * * * * * //

dimensions      [0 1 -1 0 0 0 0];

internalField   nonuniform List<vector> 
100
(
(-0.00161882 0.000930899 0)
(-0.00459225 0.00119217 0)
(-0.0121004 0.00144329 0)
(-0.015999 0.000534123 0)
(-0.0202064 0.000214507 0)
(-0.021139 -0.00120425 0)
(-0.0191866 -0.00181341 0)
(-0.0154821 -0.00327568 0)
(-0.00664964 -0.00322212 0)
(-0.00251637 -0.00274612 0)
(-0.003082 0.00533676 0)
(-0.0106897 0.0092158 0)
(-0.0246805 0.0102716 0)
(-0.0326634 0.00734335 0)
(-0.0400148 0.00534391 0)
(-0.0415795 -0.000112926 0)
(-0.0379115 -0.00346795 0)
(-0.0303331 -0.00953429 0)
(-0.0143028 -0.0095835 0)
(-0.00425241 -0.00639889 0)
(-0.00383579 0.0146987 0)
(-0.0137155 0.0225646 0)
(-0.0307663 0.0236624 0)
(-0.0408634 0.0154131 0)
(-0.050306 0.00943208 0)
(-0.0528971 -0.00388246 0)
(-0.0495745 -0.0128798 0)
(-0.0405668 -0.0274935 0)
(-0.0207366 -0.0294248 0)
(-0.00627808 -0.0215985 0)
(-0.00605518 0.0227324 0)
(-0.0191926 0.0358758 0)
(-0.0408896 0.0376482 0)
(-0.054092 0.0265731 0)
(-0.0662875 0.0179537 0)
(-0.0710106 -0.0010204 0)
(-0.0689525 -0.0150266 0)
(-0.0589231 -0.0383384 0)
(-0.0335835 -0.0431868 0)
(-0.0106414 -0.0328954 0)
(-0.00712359 0.0401726 0)
(-0.0223522 0.0570603 0)
(-0.0473409 0.0590873 0)
(-0.0632419 0.0400538 0)
(-0.079175 0.0268009 0)
(-0.0874962 -0.00226838 0)
(-0.0899287 -0.0248402 0)
(-0.0815408 -0.0641907 0)
(-0.052671 -0.0782671 0)
(-0.0175556 -0.0668542 0)
(-0.0140112 0.0516433 0)
(-0.0359322 0.0754351 0)
(-0.0669181 0.0787402 0)
(-0.0874337 0.0578034 0)
(-0.106622 0.0430922 0)
(-0.119482 0.00946539 0)
(-0.128006 -0.0195456 0)
(-0.122371 -0.0753518 0)
(-0.0895227 -0.105641 0)
(-0.0315922 -0.102054 0)
(-0.015593 0.0910264 0)
(-0.0388771 0.109214 0)
(-0.0712118 0.111822 0)
(-0.0920538 0.0783256 0)
(-0.112686 0.0596609 0)
(-0.126593 0.0171027 0)
(-0.14277 -0.0217013 0)
(-0.142152 -0.105322 0)
(-0.117773 -0.170353 0)
(-0.0451126 -0.191319 0)
(-0.0403114 0.104343 0)
(-0.0737162 0.12956 0)
(-0.0899016 0.132223 0)
(-0.0992848 0.0981562 0)
(-0.10401 0.0791812 0)
(-0.106024 0.0389452 0)
(-0.121996 -0.00123791 0)
(-0.120242 -0.0996526 0)
(-0.119365 -0.198713 0)
(-0.051734 -0.262992 0)
(-0.0360574 0.208022 0)
(-0.0273286 0.156947 0)
(0.00109745 0.140734 0)
(0.035062 0.0901673 0)
(0.0596927 0.0683244 0)
(0.093413 0.0319386 0)
(0.0936584 -0.00591105 0)
(0.106895 -0.111716 0)
(0.0446695 -0.239143 0)
(0.0118198 -0.370867 0)
(0.148294 0.16203 0)
(0.237362 0.0897893 0)
(0.38325 0.0717692 0)
(0.454846 0.0390172 0)
(0.508662 0.0243791 0)
(0.550028 0.00551423 0)
(0.544313 -0.0079338 0)
(0.539548 -0.0453161 0)
(0.385926 -0.0895078 0)
(0.213555 -0.192448 0)
)
;

boundaryField
{
    movingWall
    {
        type            fixedValue;
        value           uniform (1 0 0);
    }
    fixedWalls
    {
        type            noSlip;
    }
    frontAndBack
    {
        type            empty;
    }
}


// ************************************************************************* //
