/*--------------------------------*- C++ -*----------------------------------*\
| =========                 |                                                 |
| \\      /  F ield         | OpenFOAM: The Open Source CFD Toolbox           |
|  \\    /   O peration     | Version:  4.1                                   |
|   \\  /    A nd           | Web:      www.OpenFOAM.org                      |
|    \\/     M anipulation  |                                                 |
\*---------------------------------------------------------------------------*/
FoamFile
{
    version     2.0;
    format      ascii;
    class       volVectorField;
    location    "0.1305";
    object      U;
}
// * * * * * * * * * * * * * * * * * * * * * * * * * * * * * * * * * * * * * //

dimensions      [0 1 -1 0 0 0 0];

internalField   nonuniform List<vector> 
6400
(
(8.01504e-06 -7.98005e-06 0)
(3.02527e-05 -1.16239e-05 0)
(4.84744e-05 -8.07591e-06 0)
(5.65144e-05 1.20452e-06 0)
(5.01475e-05 1.42073e-05 0)
(2.68878e-05 2.93601e-05 0)
(-1.44905e-05 4.55179e-05 0)
(-7.42959e-05 6.18684e-05 0)
(-0.000152188 7.78415e-05 0)
(-0.000247373 9.3041e-05 0)
(-0.000358742 0.000107195 0)
(-0.000484979 0.000120123 0)
(-0.000624626 0.000131708 0)
(-0.000776142 0.000141879 0)
(-0.000937943 0.000150602 0)
(-0.00110843 0.000157866 0)
(-0.00128599 0.000163681 0)
(-0.00146907 0.000168068 0)
(-0.0016561 0.000171061 0)
(-0.0018456 0.000172699 0)
(-0.0020361 0.000173029 0)
(-0.0022262 0.0001721 0)
(-0.00241456 0.000169967 0)
(-0.0025999 0.000166685 0)
(-0.00278098 0.000162312 0)
(-0.00295665 0.000156905 0)
(-0.00312581 0.000150524 0)
(-0.00328744 0.000143231 0)
(-0.00344057 0.000135084 0)
(-0.00358429 0.000126147 0)
(-0.00371779 0.00011648 0)
(-0.0038403 0.000106145 0)
(-0.00395112 9.52057e-05 0)
(-0.00404963 8.3725e-05 0)
(-0.00413527 7.17669e-05 0)
(-0.00420756 5.93961e-05 0)
(-0.00426608 4.66783e-05 0)
(-0.00431049 3.368e-05 0)
(-0.00434052 2.04687e-05 0)
(-0.00435598 7.1132e-06 0)
(-0.00435675 -6.31678e-06 0)
(-0.00434278 -1.97502e-05 0)
(-0.00431411 -3.31148e-05 0)
(-0.00427086 -4.63373e-05 0)
(-0.00421322 -5.93433e-05 0)
(-0.00414147 -7.20572e-05 0)
(-0.00405596 -8.44026e-05 0)
(-0.00395715 -9.63026e-05 0)
(-0.00384555 -0.00010768 0)
(-0.00372179 -0.000118456 0)
(-0.00358656 -0.000128553 0)
(-0.00344063 -0.000137894 0)
(-0.00328489 -0.000146402 0)
(-0.00312027 -0.000154001 0)
(-0.0029478 -0.000160618 0)
(-0.0027686 -0.00016618 0)
(-0.00258385 -0.000170619 0)
(-0.00239482 -0.000173867 0)
(-0.00220282 -0.000175865 0)
(-0.00200927 -0.000176553 0)
(-0.00181562 -0.000175881 0)
(-0.00162337 -0.000173803 0)
(-0.00143408 -0.000170282 0)
(-0.00124934 -0.000165291 0)
(-0.00107077 -0.000158813 0)
(-0.00090001 -0.000150846 0)
(-0.000738681 -0.000141403 0)
(-0.000588395 -0.000130522 0)
(-0.000450714 -0.000118265 0)
(-0.000327126 -0.000104734 0)
(-0.000219 -9.00755e-05 0)
(-0.000127535 -7.45031e-05 0)
(-5.36858e-05 -5.8318e-05 0)
(1.93786e-06 -4.19428e-05 0)
(3.92047e-05 -2.59678e-05 0)
(5.86497e-05 -1.12151e-05 0)
(6.17269e-05 1.17885e-06 0)
(5.11277e-05 9.68193e-06 0)
(3.12132e-05 1.23874e-05 0)
(8.15157e-06 8.08501e-06 0)
(1.17874e-05 -3.01924e-05 0)
(4.55056e-05 -4.50238e-05 0)
(6.52071e-05 -2.69277e-05 0)
(5.6626e-05 1.37862e-05 0)
(9.73015e-06 6.89166e-05 0)
(-8.16008e-05 0.00013235 0)
(-0.000220575 0.000199631 0)
(-0.000408186 0.000267564 0)
(-0.000643783 0.000333879 0)
(-0.000925515 0.000396981 0)
(-0.00125066 0.000455762 0)
(-0.00161588 0.000509475 0)
(-0.00201741 0.000557631 0)
(-0.0024512 0.000599931 0)
(-0.00291303 0.00063622 0)
(-0.00339861 0.000666444 0)
(-0.00390358 0.000690631 0)
(-0.00442365 0.000708865 0)
(-0.00495457 0.000721274 0)
(-0.00549217 0.000728019 0)
(-0.00603242 0.000729286 0)
(-0.0065714 0.000725282 0)
(-0.00710535 0.000716225 0)
(-0.00763065 0.000702345 0)
(-0.00814386 0.000683879 0)
(-0.00864171 0.000661072 0)
(-0.0091211 0.000634171 0)
(-0.00957912 0.000603429 0)
(-0.010013 0.0005691 0)
(-0.0104203 0.00053144 0)
(-0.0107985 0.000490711 0)
(-0.0111455 0.000447172 0)
(-0.0114594 0.000401089 0)
(-0.0117384 0.000352728 0)
(-0.0119809 0.000302359 0)
(-0.0121854 0.000250254 0)
(-0.0123509 0.000196692 0)
(-0.0124764 0.000141951 0)
(-0.0125612 8.63182e-05 0)
(-0.0126046 3.00819e-05 0)
(-0.0126063 -2.64632e-05 0)
(-0.0125663 -8.3018e-05 0)
(-0.0124846 -0.000139279 0)
(-0.0123617 -0.000194936 0)
(-0.012198 -0.000249678 0)
(-0.0119943 -0.000303186 0)
(-0.0117518 -0.000355139 0)
(-0.0114716 -0.000405216 0)
(-0.0111553 -0.000453088 0)
(-0.0108046 -0.000498432 0)
(-0.0104215 -0.00054092 0)
(-0.0100082 -0.000580228 0)
(-0.00956724 -0.000616036 0)
(-0.00910119 -0.000648027 0)
(-0.008613 -0.000675893 0)
(-0.00810579 -0.000699335 0)
(-0.00758291 -0.000718065 0)
(-0.00704789 -0.000731809 0)
(-0.00650444 -0.00074031 0)
(-0.00595648 -0.000743333 0)
(-0.00540805 -0.000740665 0)
(-0.00486334 -0.000732123 0)
(-0.00432666 -0.000717557 0)
(-0.00380238 -0.000696857 0)
(-0.00329493 -0.000669961 0)
(-0.00280878 -0.000636866 0)
(-0.00234833 -0.00059764 0)
(-0.0019179 -0.00055244 0)
(-0.00152165 -0.000501541 0)
(-0.00116348 -0.000445361 0)
(-0.000846926 -0.000384517 0)
(-0.000575026 -0.000319884 0)
(-0.000350112 -0.000252688 0)
(-0.000173575 -0.000184629 0)
(-4.55469e-05 -0.000118057 0)
(3.55159e-05 -5.62034e-05 0)
(7.33677e-05 -3.4849e-06 0)
(7.46109e-05 3.41422e-05 0)
(4.95991e-05 4.88469e-05 0)
(1.26481e-05 3.10764e-05 0)
(8.43991e-06 -4.85905e-05 0)
(2.81968e-05 -6.47891e-05 0)
(2.10359e-05 -1.92786e-05 0)
(-3.14479e-05 6.83717e-05 0)
(-0.000142665 0.000183095 0)
(-0.000321051 0.000313581 0)
(-0.000571195 0.00045145 0)
(-0.000894643 0.000590565 0)
(-0.0012906 0.000726475 0)
(-0.0017565 0.000855981 0)
(-0.00228844 0.00097682 0)
(-0.00288155 0.00108742 0)
(-0.00353024 0.00118673 0)
(-0.00422844 0.00127408 0)
(-0.00496979 0.00134909 0)
(-0.00574769 0.0014116 0)
(-0.0065555 0.00146163 0)
(-0.00738656 0.0014993 0)
(-0.00823427 0.00152486 0)
(-0.00909215 0.00153861 0)
(-0.00995386 0.0015409 0)
(-0.0108133 0.00153216 0)
(-0.0116645 0.00151282 0)
(-0.0125017 0.00148335 0)
(-0.0133196 0.00144424 0)
(-0.0141129 0.00139599 0)
(-0.0148767 0.00133911 0)
(-0.0156064 0.00127414 0)
(-0.0162976 0.00120159 0)
(-0.0169463 0.00112202 0)
(-0.0175487 0.00103597 0)
(-0.0181014 0.000943989 0)
(-0.0186012 0.000846636 0)
(-0.0190454 0.000744475 0)
(-0.0194313 0.000638078 0)
(-0.0197568 0.000528023 0)
(-0.0200201 0.000414896 0)
(-0.0202195 0.000299291 0)
(-0.020354 0.000181813 0)
(-0.0204226 6.30754e-05 0)
(-0.0204249 -5.62996e-05 0)
(-0.0203607 -0.000175679 0)
(-0.0202301 -0.000294419 0)
(-0.0200338 -0.000411869 0)
(-0.0197726 -0.000527368 0)
(-0.0194479 -0.000640246 0)
(-0.0190613 -0.000749828 0)
(-0.0186148 -0.000855434 0)
(-0.0181109 -0.00095638 0)
(-0.0175523 -0.00105198 0)
(-0.0169422 -0.00114155 0)
(-0.0162842 -0.00122442 0)
(-0.015582 -0.00129991 0)
(-0.0148401 -0.00136737 0)
(-0.0140629 -0.00142616 0)
(-0.0132555 -0.00147564 0)
(-0.0124231 -0.00151524 0)
(-0.0115713 -0.00154439 0)
(-0.0107059 -0.00156255 0)
(-0.00983316 -0.00156926 0)
(-0.0089593 -0.00156409 0)
(-0.00809092 -0.00154666 0)
(-0.00723472 -0.00151671 0)
(-0.00639753 -0.00147401 0)
(-0.0055862 -0.00141847 0)
(-0.0048076 -0.00135013 0)
(-0.0040685 -0.00126916 0)
(-0.00337548 -0.00117593 0)
(-0.00273483 -0.00107105 0)
(-0.0021524 -0.000955442 0)
(-0.00163345 -0.000830405 0)
(-0.0011824 -0.000697762 0)
(-0.000802584 -0.00056001 0)
(-0.000495918 -0.00042055 0)
(-0.000262454 -0.000283986 0)
(-9.98659e-05 -0.000156519 0)
(-2.79516e-06 -4.64634e-05 0)
(3.78731e-05 3.51444e-05 0)
(3.60257e-05 7.38372e-05 0)
(1.02356e-05 5.11602e-05 0)
(-5.72444e-07 -5.71414e-05 0)
(-1.1451e-05 -5.69232e-05 0)
(-6.47666e-05 3.29318e-05 0)
(-0.000180605 0.000184626 0)
(-0.000373914 0.000376528 0)
(-0.00065421 0.000592091 0)
(-0.00102672 0.000818799 0)
(-0.00149317 0.00104728 0)
(-0.00205255 0.00127059 0)
(-0.00270165 0.00148361 0)
(-0.00343561 0.00168267 0)
(-0.00424833 0.00186513 0)
(-0.00513274 0.00202919 0)
(-0.00608113 0.00217366 0)
(-0.0070853 0.00229782 0)
(-0.00813678 0.00240134 0)
(-0.00922693 0.00248416 0)
(-0.0103471 0.00254643 0)
(-0.0114886 0.00258848 0)
(-0.012643 0.00261078 0)
(-0.0138018 0.0026139 0)
(-0.0149571 0.00259847 0)
(-0.0161009 0.00256522 0)
(-0.0172257 0.0025149 0)
(-0.0183242 0.00244832 0)
(-0.0193894 0.00236631 0)
(-0.020415 0.00226973 0)
(-0.0213946 0.00215944 0)
(-0.0223224 0.00203636 0)
(-0.023193 0.00190137 0)
(-0.0240014 0.00175541 0)
(-0.024743 0.00159941 0)
(-0.0254135 0.00143431 0)
(-0.0260093 0.00126107 0)
(-0.0265268 0.00108066 0)
(-0.0269632 0.000894064 0)
(-0.027316 0.000702273 0)
(-0.0275832 0.000506302 0)
(-0.0277631 0.000307176 0)
(-0.0278547 0.000105937 0)
(-0.0278572 -9.63562e-05 0)
(-0.0277704 -0.00029863 0)
(-0.0275947 -0.000499793 0)
(-0.0273308 -0.000698742 0)
(-0.0269799 -0.000894356 0)
(-0.0265438 -0.00108551 0)
(-0.0260247 -0.00127105 0)
(-0.0254254 -0.00144984 0)
(-0.0247491 -0.00162072 0)
(-0.0239996 -0.00178254 0)
(-0.023181 -0.00193415 0)
(-0.0222981 -0.00207441 0)
(-0.0213561 -0.00220221 0)
(-0.0203607 -0.00231645 0)
(-0.0193181 -0.00241604 0)
(-0.0182348 -0.00249997 0)
(-0.0171178 -0.00256725 0)
(-0.0159745 -0.00261695 0)
(-0.0148127 -0.0026482 0)
(-0.0136406 -0.00266024 0)
(-0.0124664 -0.00265237 0)
(-0.0112988 -0.00262402 0)
(-0.0101467 -0.00257474 0)
(-0.00901887 -0.00250424 0)
(-0.00792441 -0.00241242 0)
(-0.00687221 -0.00229938 0)
(-0.00587103 -0.00216548 0)
(-0.00492936 -0.00201141 0)
(-0.00405529 -0.00183826 0)
(-0.00325627 -0.0016476 0)
(-0.00253895 -0.00144165 0)
(-0.00190889 -0.00122343 0)
(-0.00137026 -0.000997004 0)
(-0.000925447 -0.000767785 0)
(-0.000574573 -0.000542964 0)
(-0.000314952 -0.000332019 0)
(-0.000140411 -0.000147388 0)
(-4.05793e-05 -5.25831e-06 0)
(1.39024e-07 7.34884e-05 0)
(2.17167e-06 6.23634e-05 0)
(-1.33098e-05 -5.16932e-05 0)
(-6.55489e-05 -1.14766e-05 0)
(-0.000177835 0.000143104 0)
(-0.000370485 0.000377587 0)
(-0.000658687 0.000664578 0)
(-0.00105202 0.000982668 0)
(-0.00155565 0.00131531 0)
(-0.00217103 0.00164984 0)
(-0.00289669 0.00197668 0)
(-0.00372874 0.00228865 0)
(-0.00466145 0.00258043 0)
(-0.0056876 0.00284816 0)
(-0.00679888 0.00308913 0)
(-0.00798616 0.0033015 0)
(-0.00923971 0.00348411 0)
(-0.0105494 0.00363636 0)
(-0.011905 0.00375805 0)
(-0.013296 0.00384934 0)
(-0.014712 0.00391062 0)
(-0.0161427 0.00394253 0)
(-0.017578 0.00394584 0)
(-0.0190081 0.00392148 0)
(-0.0204233 0.00387045 0)
(-0.0218145 0.00379387 0)
(-0.0231727 0.00369291 0)
(-0.0244896 0.00356878 0)
(-0.0257571 0.00342276 0)
(-0.0269675 0.00325614 0)
(-0.0281138 0.00307027 0)
(-0.0291892 0.0028665 0)
(-0.0301876 0.0026462 0)
(-0.0311034 0.00241079 0)
(-0.0319313 0.00216168 0)
(-0.0326667 0.00190032 0)
(-0.0333054 0.00162817 0)
(-0.0338439 0.00134671 0)
(-0.0342791 0.00105745 0)
(-0.0346085 0.000761914 0)
(-0.0348302 0.000461652 0)
(-0.0349427 0.000158239 0)
(-0.0349452 -0.000146729 0)
(-0.0348376 -0.000451631 0)
(-0.0346201 -0.000754823 0)
(-0.0342938 -0.00105464 0)
(-0.0338601 -0.0013494 0)
(-0.0333213 -0.0016374 0)
(-0.0326801 -0.00191692 0)
(-0.0319399 -0.00218625 0)
(-0.0311047 -0.00244365 0)
(-0.0301791 -0.0026874 0)
(-0.0291683 -0.00291578 0)
(-0.0280782 -0.0031271 0)
(-0.026915 -0.00331969 0)
(-0.0256857 -0.00349191 0)
(-0.024398 -0.00364217 0)
(-0.0230598 -0.00376895 0)
(-0.0216797 -0.00387081 0)
(-0.0202668 -0.00394636 0)
(-0.0188305 -0.00399438 0)
(-0.0173806 -0.00401371 0)
(-0.0159273 -0.00400339 0)
(-0.0144811 -0.00396261 0)
(-0.0130527 -0.00389075 0)
(-0.0116529 -0.00378746 0)
(-0.0102923 -0.00365262 0)
(-0.00898181 -0.00348649 0)
(-0.00773184 -0.00328968 0)
(-0.00655253 -0.00306331 0)
(-0.00545348 -0.00280906 0)
(-0.00444353 -0.00252934 0)
(-0.00353053 -0.00222743 0)
(-0.00272106 -0.00190777 0)
(-0.00202009 -0.00157617 0)
(-0.00143057 -0.00124028 0)
(-0.000952953 -0.000910021 0)
(-0.000584668 -0.00059823 0)
(-0.00031946 -0.000321388 0)
(-0.000146712 -0.000100517 0)
(-5.04018e-05 3.78108e-05 0)
(-9.67079e-06 6.05054e-05 0)
(-2.83053e-05 -2.97222e-05 0)
(-0.00012843 7.78939e-05 0)
(-0.000307806 0.000320156 0)
(-0.000586168 0.000657541 0)
(-0.000978069 0.0010579 0)
(-0.00149239 0.00149554 0)
(-0.00213359 0.00195023 0)
(-0.00290246 0.00240613 0)
(-0.00379676 0.00285104 0)
(-0.00481179 0.00327565 0)
(-0.00594088 0.00367291 0)
(-0.00717578 0.00403764 0)
(-0.00850704 0.00436609 0)
(-0.00992427 0.00465566 0)
(-0.0114164 0.00490468 0)
(-0.0129719 0.00511218 0)
(-0.0145789 0.00527781 0)
(-0.0162256 0.00540165 0)
(-0.0178999 0.00548417 0)
(-0.0195901 0.00552615 0)
(-0.0212843 0.0055286 0)
(-0.0229713 0.0054927 0)
(-0.0246399 0.00541983 0)
(-0.0262794 0.00531148 0)
(-0.0278795 0.00516922 0)
(-0.0294304 0.00499472 0)
(-0.0309226 0.00478974 0)
(-0.0323474 0.00455605 0)
(-0.0336964 0.00429551 0)
(-0.0349617 0.00401 0)
(-0.0361363 0.00370144 0)
(-0.0372134 0.00337177 0)
(-0.038187 0.003023 0)
(-0.0390517 0.00265712 0)
(-0.0398025 0.00227618 0)
(-0.0404355 0.00188227 0)
(-0.0409468 0.00147749 0)
(-0.0413337 0.00106396 0)
(-0.0415939 0.000643876 0)
(-0.0417257 0.000219423 0)
(-0.0417282 -0.000207159 0)
(-0.0416012 -0.000633605 0)
(-0.0413451 -0.00105762 0)
(-0.0409611 -0.00147687 0)
(-0.0404508 -0.00188902 0)
(-0.039817 -0.00229168 0)
(-0.0390629 -0.00268248 0)
(-0.0381924 -0.00305901 0)
(-0.0372101 -0.00341887 0)
(-0.0361216 -0.00375966 0)
(-0.0349328 -0.00407902 0)
(-0.0336506 -0.00437458 0)
(-0.0322824 -0.00464405 0)
(-0.0308363 -0.00488515 0)
(-0.0293211 -0.00509572 0)
(-0.0277462 -0.00527365 0)
(-0.0261214 -0.00541696 0)
(-0.0244574 -0.0055238 0)
(-0.022765 -0.00559247 0)
(-0.0210557 -0.00562145 0)
(-0.0193412 -0.00560943 0)
(-0.0176336 -0.00555535 0)
(-0.0159453 -0.00545845 0)
(-0.0142885 -0.00531828 0)
(-0.0126757 -0.00513481 0)
(-0.0111193 -0.00490845 0)
(-0.0096311 -0.00464016 0)
(-0.00822277 -0.00433155 0)
(-0.00690522 -0.00398503 0)
(-0.00568855 -0.00360392 0)
(-0.00458172 -0.00319275 0)
(-0.00359228 -0.00275747 0)
(-0.00272607 -0.00230578 0)
(-0.00198677 -0.00184763 0)
(-0.00137547 -0.00139569 0)
(-0.000890166 -0.000966049 0)
(-0.000525127 -0.00057895 0)
(-0.000270267 -0.000259711 0)
(-0.000109998 -3.96694e-05 0)
(-2.38421e-05 4.29958e-05 0)
(-4.45374e-05 1.01699e-05 0)
(-0.000196157 0.000214982 0)
(-0.000447375 0.000569721 0)
(-0.00081694 0.00103124 0)
(-0.00131822 0.00156365 0)
(-0.00195884 0.00213768 0)
(-0.00274208 0.00272981 0)
(-0.00366765 0.00332133 0)
(-0.00473228 0.00389753 0)
(-0.00593028 0.004447 0)
(-0.00725394 0.00496097 0)
(-0.00869397 0.00543287 0)
(-0.0102398 0.00585786 0)
(-0.0118799 0.00623252 0)
(-0.0136019 0.00655458 0)
(-0.015393 0.00682269 0)
(-0.0172402 0.00703625 0)
(-0.0191301 0.00719529 0)
(-0.0210494 0.0073003 0)
(-0.0229848 0.0073522 0)
(-0.0249233 0.00735222 0)
(-0.0268521 0.00730188 0)
(-0.0287587 0.0072029 0)
(-0.0306311 0.00705717 0)
(-0.0324578 0.00686674 0)
(-0.0342276 0.00663379 0)
(-0.0359299 0.00636056 0)
(-0.0375548 0.00604941 0)
(-0.0390928 0.00570276 0)
(-0.0405352 0.00532309 0)
(-0.0418739 0.00491292 0)
(-0.0431012 0.00447483 0)
(-0.0442104 0.00401145 0)
(-0.0451954 0.00352544 0)
(-0.0460506 0.00301952 0)
(-0.0467713 0.00249644 0)
(-0.0473535 0.00195899 0)
(-0.0477939 0.00141 0)
(-0.0480899 0.000852352 0)
(-0.0482398 0.00028897 0)
(-0.0482423 -0.000277186 0)
(-0.0480974 -0.000843111 0)
(-0.0478055 -0.00140576 0)
(-0.0473679 -0.00196207 0)
(-0.0467867 -0.00250891 0)
(-0.0460647 -0.00304316 0)
(-0.0452057 -0.00356166 0)
(-0.0442141 -0.00406124 0)
(-0.0430952 -0.00453875 0)
(-0.0418552 -0.00499102 0)
(-0.0405008 -0.00541493 0)
(-0.0390398 -0.00580738 0)
(-0.0374806 -0.00616536 0)
(-0.0358322 -0.0064859 0)
(-0.0341047 -0.00676616 0)
(-0.0323085 -0.00700341 0)
(-0.0304547 -0.00719506 0)
(-0.0285553 -0.00733871 0)
(-0.0266225 -0.00743217 0)
(-0.024669 -0.00747351 0)
(-0.0227082 -0.00746106 0)
(-0.0207534 -0.0073935 0)
(-0.0188185 -0.00726991 0)
(-0.0169173 -0.00708978 0)
(-0.0150636 -0.00685316 0)
(-0.013271 -0.00656067 0)
(-0.011553 -0.00621368 0)
(-0.00992235 -0.00581436 0)
(-0.0083913 -0.00536591 0)
(-0.00697107 -0.00487268 0)
(-0.00567172 -0.00434048 0)
(-0.00450185 -0.00377686 0)
(-0.00346822 -0.00319146 0)
(-0.00257546 -0.00259649 0)
(-0.0018256 -0.00200728 0)
(-0.00121758 -0.00144293 0)
(-0.000746696 -0.000927073 0)
(-0.000403942 -0.000488681 0)
(-0.000174712 -0.000162905 0)
(-3.93191e-05 8.36245e-06 0)
(-6.13237e-05 6.86106e-05 0)
(-0.000266075 0.000401754 0)
(-0.000591522 0.000894986 0)
(-0.00105528 0.00150273 0)
(-0.00166923 0.00218628 0)
(-0.00243937 0.00291349 0)
(-0.00336744 0.00365804 0)
(-0.00445173 0.00439866 0)
(-0.00568771 0.00511836 0)
(-0.00706846 0.00580373 0)
(-0.00858517 0.00644437 0)
(-0.0102274 0.00703229 0)
(-0.0119835 0.00756157 0)
(-0.0138407 0.00802793 0)
(-0.0157856 0.00842848 0)
(-0.0178043 0.00876145 0)
(-0.0198823 0.00902597 0)
(-0.0220052 0.00922197 0)
(-0.0241583 0.00934998 0)
(-0.0263273 0.00941105 0)
(-0.0284977 0.00940665 0)
(-0.0306556 0.0093386 0)
(-0.0327874 0.00920902 0)
(-0.0348797 0.00902024 0)
(-0.0369199 0.00877481 0)
(-0.0388957 0.00847543 0)
(-0.0407955 0.00812494 0)
(-0.0426084 0.00772629 0)
(-0.0443239 0.00728253 0)
(-0.0459323 0.0067968 0)
(-0.0474247 0.00627229 0)
(-0.0487927 0.0057123 0)
(-0.0500289 0.00512013 0)
(-0.0511264 0.0044992 0)
(-0.0520792 0.00385295 0)
(-0.0528821 0.00318489 0)
(-0.0535307 0.00249857 0)
(-0.0540211 0.0017976 0)
(-0.0543508 0.00108566 0)
(-0.0545176 0.000366463 0)
(-0.0545205 -0.000356214 0)
(-0.0543591 -0.00107855 0)
(-0.054034 -0.00179667 0)
(-0.0535466 -0.00250666 0)
(-0.0528992 -0.00320456 0)
(-0.0520951 -0.0038864 0)
(-0.0511383 -0.00454816 0)
(-0.0500338 -0.00518583 0)
(-0.0487874 -0.00579541 0)
(-0.0474058 -0.00637289 0)
(-0.0458966 -0.00691432 0)
(-0.0442683 -0.0074158 0)
(-0.04253 -0.0078735 0)
(-0.040692 -0.00828371 0)
(-0.038765 -0.00864282 0)
(-0.0367606 -0.00894743 0)
(-0.0346911 -0.0091943 0)
(-0.0325695 -0.00938043 0)
(-0.0304093 -0.0095031 0)
(-0.0282245 -0.00955991 0)
(-0.0260296 -0.00954883 0)
(-0.0238394 -0.00946828 0)
(-0.0216688 -0.00931713 0)
(-0.0195331 -0.00909487 0)
(-0.0174474 -0.00880162 0)
(-0.0154266 -0.00843826 0)
(-0.0134853 -0.00800658 0)
(-0.0116376 -0.00750937 0)
(-0.00989691 -0.00695066 0)
(-0.00827554 -0.00633588 0)
(-0.00678471 -0.00567216 0)
(-0.00543409 -0.00496865 0)
(-0.00423157 -0.00423688 0)
(-0.00318289 -0.00349125 0)
(-0.00229127 -0.00274956 0)
(-0.00155695 -0.00203365 0)
(-0.000976604 -0.00137008 0)
(-0.00054268 -0.00079084 0)
(-0.000241864 -0.000334026 0)
(-5.54116e-05 -4.40914e-05 0)
(-7.8222e-05 0.000145725 0)
(-0.000336447 0.000638923 0)
(-0.000736894 0.00129739 0)
(-0.00129607 0.00207406 0)
(-0.00202421 0.00292821 0)
(-0.00292547 0.00382545 0)
(-0.00399979 0.00473716 0)
(-0.00524381 0.00563987 0)
(-0.00665149 0.00651456 0)
(-0.00821455 0.00734602 0)
(-0.0099229 0.00812226 0)
(-0.0117649 0.008834 0)
(-0.0137277 0.00947423 0)
(-0.0157975 0.0100378 0)
(-0.0179597 0.0105213 0)
(-0.0201992 0.0109224 0)
(-0.0225005 0.01124 0)
(-0.024848 0.011474 0)
(-0.0272259 0.0116249 0)
(-0.0296187 0.0116938 0)
(-0.0320109 0.0116825 0)
(-0.0343874 0.0115931 0)
(-0.0367334 0.0114283 0)
(-0.0390346 0.0111907 0)
(-0.0412774 0.0108834 0)
(-0.0434484 0.0105098 0)
(-0.0455351 0.0100732 0)
(-0.0475255 0.00957734 0)
(-0.0494085 0.0090259 0)
(-0.0511736 0.00842271 0)
(-0.0528109 0.00777173 0)
(-0.0543115 0.00707698 0)
(-0.0556673 0.00634258 0)
(-0.0568708 0.0055727 0)
(-0.0579155 0.0047716 0)
(-0.0587958 0.0039436 0)
(-0.0595068 0.00309311 0)
(-0.0600446 0.00222459 0)
(-0.0604061 0.00134256 0)
(-0.0605892 0.000451628 0)
(-0.0605926 -0.000443557 0)
(-0.0604161 -0.00133827 0)
(-0.0600601 -0.00222773 0)
(-0.0595264 -0.00310712 0)
(-0.0588174 -0.00397155 0)
(-0.0579365 -0.00481612 0)
(-0.0568882 -0.0056359 0)
(-0.0556779 -0.00642594 0)
(-0.0543118 -0.00718132 0)
(-0.0527973 -0.00789713 0)
(-0.0511426 -0.00856851 0)
(-0.0493567 -0.00919067 0)
(-0.0474498 -0.00975892 0)
(-0.0454327 -0.0102687 0)
(-0.0433172 -0.0107157 0)
(-0.0411157 -0.0110957 0)
(-0.0388417 -0.0114047 0)
(-0.036509 -0.0116391 0)
(-0.0341322 -0.0117957 0)
(-0.0317266 -0.0118715 0)
(-0.0293077 -0.0118641 0)
(-0.0268914 -0.0117716 0)
(-0.0244941 -0.0115928 0)
(-0.022132 -0.0113271 0)
(-0.0198214 -0.0109747 0)
(-0.0175785 -0.0105367 0)
(-0.0154191 -0.0100154 0)
(-0.0133584 -0.00941419 0)
(-0.011411 -0.00873799 0)
(-0.00959042 -0.00799328 0)
(-0.00790895 -0.00718852 0)
(-0.00637752 -0.00633441 0)
(-0.00500523 -0.00544429 0)
(-0.00379916 -0.0045346 0)
(-0.00276394 -0.00362541 0)
(-0.00190133 -0.00274096 0)
(-0.00120968 -0.0019103 0)
(-0.000683089 -0.00116786 0)
(-0.00030969 -0.000553902 0)
(-7.16697e-05 -0.000114552 0)
(-9.49574e-05 0.000241323 0)
(-0.000406182 0.000926374 0)
(-0.000881333 0.00177718 0)
(-0.00153591 0.00274587 0)
(-0.0023785 0.00379038 0)
(-0.00341128 0.00487463 0)
(-0.00463224 0.00596816 0)
(-0.00603618 0.00704566 0)
(-0.00761538 0.00808637 0)
(-0.00936003 0.00907345 0)
(-0.0112586 0.0099935 0)
(-0.0132983 0.010836 0)
(-0.0154649 0.011593 0)
(-0.0177436 0.0122585 0)
(-0.0201185 0.0128285 0)
(-0.0225734 0.0133002 0)
(-0.0250919 0.0136723 0)
(-0.0276571 0.0139446 0)
(-0.0302524 0.0141175 0)
(-0.032861 0.0141925 0)
(-0.0354664 0.0141714 0)
(-0.0380527 0.0140569 0)
(-0.040604 0.0138518 0)
(-0.043105 0.0135595 0)
(-0.0455411 0.0131836 0)
(-0.0478981 0.0127279 0)
(-0.0501627 0.0121967 0)
(-0.052322 0.0115942 0)
(-0.0543641 0.0109248 0)
(-0.0562778 0.0101933 0)
(-0.0580526 0.00940417 0)
(-0.0596789 0.00856243 0)
(-0.0611479 0.00767296 0)
(-0.0624519 0.00674081 0)
(-0.0635838 0.0057711 0)
(-0.0645374 0.00476903 0)
(-0.0653078 0.0037399 0)
(-0.0658906 0.00268909 0)
(-0.0662826 0.00162206 0)
(-0.0664814 0.000544341 0)
(-0.0664859 -0.000538453 0)
(-0.0662955 -0.00162064 0)
(-0.0659109 -0.00269646 0)
(-0.0653339 -0.00376011 0)
(-0.0645671 -0.00480573 0)
(-0.0636142 -0.00582741 0)
(-0.06248 -0.00681923 0)
(-0.0611701 -0.00777525 0)
(-0.0596913 -0.00868956 0)
(-0.0580514 -0.00955626 0)
(-0.0562591 -0.0103695 0)
(-0.0543242 -0.0111236 0)
(-0.0522574 -0.011813 0)
(-0.0500704 -0.0124321 0)
(-0.0477756 -0.0129758 0)
(-0.0453864 -0.0134391 0)
(-0.0429171 -0.0138173 0)
(-0.0403825 -0.014106 0)
(-0.0377981 -0.0143014 0)
(-0.0351803 -0.0144001 0)
(-0.0325456 -0.0143992 0)
(-0.029911 -0.0142966 0)
(-0.0272939 -0.0140906 0)
(-0.0247118 -0.0137808 0)
(-0.022182 -0.0133675 0)
(-0.0197218 -0.012852 0)
(-0.0173483 -0.012237 0)
(-0.0150777 -0.0115267 0)
(-0.0129259 -0.0107266 0)
(-0.0109075 -0.00984442 0)
(-0.00903616 -0.00888981 0)
(-0.00732403 -0.00787497 0)
(-0.00578162 -0.00681494 0)
(-0.00441746 -0.00572804 0)
(-0.00323778 -0.00463634 0)
(-0.00224609 -0.00356619 0)
(-0.00144252 -0.0025487 0)
(-0.000822991 -0.00162021 0)
(-0.000377083 -0.000822571 0)
(-8.7813e-05 -0.000202886 0)
(-0.00011137 0.000355032 0)
(-0.000474638 0.00126347 0)
(-0.00102353 0.00233377 0)
(-0.0017727 0.00351781 0)
(-0.00272912 0.00477267 0)
(-0.00389297 0.00606104 0)
(-0.00526019 0.00735106 0)
(-0.00682361 0.00861593 0)
(-0.00857369 0.00983339 0)
(-0.010499 0.0109852 0)
(-0.0125865 0.0120568 0)
(-0.0148219 0.0130365 0)
(-0.0171899 0.0139153 0)
(-0.0196743 0.0146868 0)
(-0.0222581 0.0153461 0)
(-0.0249242 0.0158902 0)
(-0.0276548 0.0163176 0)
(-0.0304322 0.0166278 0)
(-0.0332387 0.0168215 0)
(-0.0360565 0.0169003 0)
(-0.0388684 0.0168662 0)
(-0.0416571 0.0167223 0)
(-0.0444061 0.0164719 0)
(-0.0470993 0.0161189 0)
(-0.0497211 0.0156675 0)
(-0.0522565 0.0151222 0)
(-0.0546914 0.0144879 0)
(-0.0570122 0.0137695 0)
(-0.0592064 0.0129723 0)
(-0.061262 0.0121018 0)
(-0.0631679 0.0111634 0)
(-0.0649141 0.010163 0)
(-0.0664912 0.00910622 0)
(-0.067891 0.00799911 0)
(-0.069106 0.00684769 0)
(-0.0701298 0.00565811 0)
(-0.0709569 0.00443662 0)
(-0.0715829 0.00318956 0)
(-0.0720043 0.00192339 0)
(-0.0722187 0.000644634 0)
(-0.0722246 -0.000640082 0)
(-0.0720217 -0.00192405 0)
(-0.0716106 -0.00320048 0)
(-0.0709932 -0.00446253 0)
(-0.0701722 -0.00570327 0)
(-0.0691515 -0.00691576 0)
(-0.0679361 -0.00809302 0)
(-0.0665321 -0.00922805 0)
(-0.0649466 -0.0103139 0)
(-0.0631878 -0.0113436 0)
(-0.0612649 -0.0123103 0)
(-0.0591882 -0.0132073 0)
(-0.0569691 -0.0140281 0)
(-0.0546198 -0.0147661 0)
(-0.0521536 -0.0154153 0)
(-0.0495845 -0.0159699 0)
(-0.0469276 -0.0164244 0)
(-0.0441987 -0.0167736 0)
(-0.0414141 -0.0170132 0)
(-0.0385911 -0.017139 0)
(-0.0357471 -0.0171479 0)
(-0.0329004 -0.0170372 0)
(-0.0300692 -0.0168054 0)
(-0.027272 -0.0164516 0)
(-0.0245273 -0.0159762 0)
(-0.0218536 -0.0153811 0)
(-0.0192689 -0.0146691 0)
(-0.0167909 -0.013845 0)
(-0.0144363 -0.0129154 0)
(-0.0122214 -0.0118887 0)
(-0.0101608 -0.0107759 0)
(-0.00826826 -0.00959062 0)
(-0.00655572 -0.00834935 0)
(-0.00503333 -0.00707215 0)
(-0.00370907 -0.00578287 0)
(-0.00258829 -0.00450963 0)
(-0.00167305 -0.00328525 0)
(-0.000961079 -0.00214758 0)
(-0.000443396 -0.00113955 0)
(-0.00010368 -0.000308773 0)
(-0.000127378 0.000486385 0)
(-0.000541483 0.00164928 0)
(-0.00116278 0.00296613 0)
(-0.00200523 0.00438891 0)
(-0.00307432 0.00587424 0)
(-0.00436822 0.007384 0)
(-0.00588077 0.00888526 0)
(-0.00760278 0.01035 0)
(-0.0095228 0.0117548 0)
(-0.0116276 0.0130803 0)
(-0.0139027 0.0143107 0)
(-0.0163322 0.0154335 0)
(-0.0188994 0.0164389 0)
(-0.0215869 0.0173197 0)
(-0.0243766 0.0180707 0)
(-0.0272502 0.0186885 0)
(-0.0301889 0.0191714 0)
(-0.0331739 0.0195188 0)
(-0.0361866 0.0197316 0)
(-0.0392084 0.0198114 0)
(-0.0422209 0.0197608 0)
(-0.0452062 0.0195831 0)
(-0.0481467 0.0192822 0)
(-0.0510257 0.0188623 0)
(-0.0538267 0.0183285 0)
(-0.0565342 0.017686 0)
(-0.0591331 0.0169402 0)
(-0.0616093 0.0160969 0)
(-0.0639496 0.0151623 0)
(-0.0661415 0.0141426 0)
(-0.0681734 0.0130442 0)
(-0.0700346 0.0118738 0)
(-0.0717154 0.010638 0)
(-0.0732071 0.00934382 0)
(-0.074502 0.0079982 0)
(-0.0755932 0.0066083 0)
(-0.076475 0.00518138 0)
(-0.0771428 0.0037248 0)
(-0.0775929 0.00224604 0)
(-0.0778227 0.000752691 0)
(-0.0778308 -0.000747562 0)
(-0.0776166 -0.00224694 0)
(-0.077181 -0.00373756 0)
(-0.0765257 -0.00521147 0)
(-0.0756537 -0.00666067 0)
(-0.074569 -0.00807709 0)
(-0.0732769 -0.00945263 0)
(-0.0717836 -0.0107792 0)
(-0.0700967 -0.0120487 0)
(-0.0682246 -0.0132532 0)
(-0.0661771 -0.0143846 0)
(-0.0639649 -0.0154353 0)
(-0.0615998 -0.0163975 0)
(-0.0590948 -0.017264 0)
(-0.0564637 -0.0180275 0)
(-0.0537212 -0.0186815 0)
(-0.0508832 -0.0192195 0)
(-0.0479662 -0.0196357 0)
(-0.0449874 -0.0199249 0)
(-0.0419648 -0.0200826 0)
(-0.038917 -0.0201049 0)
(-0.0358629 -0.0199889 0)
(-0.0328219 -0.0197328 0)
(-0.0298135 -0.0193356 0)
(-0.0268573 -0.0187978 0)
(-0.0239728 -0.0181213 0)
(-0.0211793 -0.0173096 0)
(-0.0184954 -0.0163678 0)
(-0.0159395 -0.0153034 0)
(-0.0135288 -0.0141256 0)
(-0.0112796 -0.0128467 0)
(-0.00920696 -0.0114813 0)
(-0.00732452 -0.0100476 0)
(-0.00564414 -0.00856696 0)
(-0.00417563 -0.00706485 0)
(-0.00292628 -0.00557091 0)
(-0.0019001 -0.00411936 0)
(-0.00109667 -0.00274918 0)
(-0.000508304 -0.00150406 0)
(-0.000119189 -0.000431799 0)
(-0.000142951 0.00063488 0)
(-0.000606592 0.00208271 0)
(-0.00129878 0.00367293 0)
(-0.00223296 0.00535782 0)
(-0.00341322 0.00709385 0)
(-0.00483579 0.00884237 0)
(-0.00649242 0.0105697 0)
(-0.00837185 0.0122469 0)
(-0.0104607 0.0138496 0)
(-0.0127438 0.0153575 0)
(-0.015205 0.0167538 0)
(-0.017827 0.0180253 0)
(-0.0205915 0.0191617 0)
(-0.02348 0.0201549 0)
(-0.0264731 0.0209995 0)
(-0.0295512 0.0216918 0)
(-0.0326947 0.0222299 0)
(-0.0358837 0.0226134 0)
(-0.0390986 0.0228432 0)
(-0.0423199 0.0229211 0)
(-0.0455283 0.0228501 0)
(-0.0487052 0.0226339 0)
(-0.0518323 0.0222769 0)
(-0.0548918 0.0217841 0)
(-0.0578668 0.021161 0)
(-0.0607409 0.0204136 0)
(-0.0634986 0.0195481 0)
(-0.0661252 0.0185711 0)
(-0.0686066 0.0174897 0)
(-0.0709301 0.0163109 0)
(-0.0730835 0.0150421 0)
(-0.0750557 0.0136908 0)
(-0.0768367 0.0122647 0)
(-0.0784172 0.0107718 0)
(-0.0797892 0.00921999 0)
(-0.0809457 0.00761753 0)
(-0.0818807 0.00597269 0)
(-0.0825892 0.0042939 0)
(-0.0830675 0.00258972 0)
(-0.0833129 0.00086884 0)
(-0.0833238 -0.000859956 0)
(-0.0830998 -0.00258776 0)
(-0.0826414 -0.00430556 0)
(-0.0819507 -0.00600426 0)
(-0.0810307 -0.00767471 0)
(-0.0798855 -0.00930767 0)
(-0.0785205 -0.0108939 0)
(-0.0769422 -0.0124242 0)
(-0.0751584 -0.0138892 0)
(-0.073178 -0.0152798 0)
(-0.0710111 -0.016587 0)
(-0.0686687 -0.0178018 0)
(-0.0661632 -0.0189156 0)
(-0.063508 -0.0199199 0)
(-0.0607176 -0.0208067 0)
(-0.0578072 -0.0215681 0)
(-0.0547934 -0.0221971 0)
(-0.0516934 -0.022687 0)
(-0.0485252 -0.0230317 0)
(-0.0453077 -0.0232262 0)
(-0.0420601 -0.023266 0)
(-0.0388025 -0.0231479 0)
(-0.0355551 -0.0228695 0)
(-0.0323384 -0.02243 0)
(-0.0291731 -0.0218298 0)
(-0.0260799 -0.0210708 0)
(-0.023079 -0.020157 0)
(-0.0201907 -0.0190941 0)
(-0.0174342 -0.0178899 0)
(-0.0148284 -0.0165548 0)
(-0.012391 -0.0151018 0)
(-0.0101386 -0.0135469 0)
(-0.0080866 -0.0119094 0)
(-0.00624864 -0.0102121 0)
(-0.00463646 -0.00848177 0)
(-0.00325933 -0.00674931 0)
(-0.00212323 -0.00505009 0)
(-0.00122951 -0.00342399 0)
(-0.000571705 -0.0019152 0)
(-0.000134316 -0.000571517 0)
(-0.000158096 0.000800018 0)
(-0.00066998 0.00256266 0)
(-0.0014315 0.00445274 0)
(-0.00245576 0.00642301 0)
(-0.00374557 0.00842999 0)
(-0.00529527 0.0104347 0)
(-0.00709455 0.0124031 0)
(-0.00913006 0.0143054 0)
(-0.0113864 0.0161165 0)
(-0.0138466 0.0178154 0)
(-0.0164926 0.0193847 0)
(-0.0193056 0.0208105 0)
(-0.0222659 0.0220817 0)
(-0.0253535 0.0231902 0)
(-0.0285478 0.02413 0)
(-0.0318281 0.0248973 0)
(-0.0351737 0.0254902 0)
(-0.0385637 0.0259082 0)
(-0.0419774 0.0261525 0)
(-0.0453946 0.0262253 0)
(-0.0487952 0.0261298 0)
(-0.0521597 0.0258703 0)
(-0.055469 0.0254516 0)
(-0.0587048 0.0248796 0)
(-0.0618493 0.0241602 0)
(-0.0648857 0.0233003 0)
(-0.0677979 0.022307 0)
(-0.0705704 0.0211877 0)
(-0.073189 0.0199502 0)
(-0.0756402 0.0186026 0)
(-0.0779115 0.0171532 0)
(-0.0799914 0.0156105 0)
(-0.0818695 0.0139833 0)
(-0.0835362 0.0122804 0)
(-0.0849833 0.0105109 0)
(-0.0862033 0.00868415 0)
(-0.0871902 0.00680941 0)
(-0.0879388 0.00489626 0)
(-0.0884451 0.00295437 0)
(-0.0887064 0.000993543 0)
(-0.088721 -0.000976264 0)
(-0.0884883 -0.00294499 0)
(-0.0880091 -0.00490245 0)
(-0.0872853 -0.00683838 0)
(-0.0863199 -0.00874242 0)
(-0.0851173 -0.0106041 0)
(-0.0836829 -0.0124131 0)