/*--------------------------------*- C++ -*----------------------------------*\
| =========                 |                                                 |
| \\      /  F ield         | OpenFOAM: The Open Source CFD Toolbox           |
|  \\    /   O peration     | Version:  4.1                                   |
|   \\  /    A nd           | Web:      www.OpenFOAM.org                      |
|    \\/     M anipulation  |                                                 |
\*---------------------------------------------------------------------------*/
FoamFile
{
    version     2.0;
    format      ascii;
    class       volVectorField;
    location    "0.0437";
    object      U;
}
// * * * * * * * * * * * * * * * * * * * * * * * * * * * * * * * * * * * * * //

dimensions      [0 1 -1 0 0 0 0];

internalField   nonuniform List<vector> 
441
(
(0.00332781 -0.00456663 0)
(0.00843325 -0.00259835 0)
(-0.000649612 -2.18767e-165 0)
(0.00167903 -2.71949e-266 0)
(-0.00894251 -0.00671672 0)
(-0.00167903 -2.68075e-232 0)
(-1.08275e-202 -4.43714e-203 0)
(-1.10911e-203 -5.63911e-228 0)
(-1.4589e-212 -2.37976e-213 0)
(-0.0051591 7.77869e-266 0)
(-0.0619453 0.0206387 0)
(-0.0784745 0.0110386 0)
(-0.0895575 0.00529293 0)
(-0.0807548 0.000801467 0)
(-0.0691657 -0.000919391 0)
(-0.0494482 -0.0022374 0)
(-0.0318439 -0.00177092 0)
(-0.0146536 -0.00165143 0)
(-0.00269971 0.000133948 0)
(0.00146384 0.000753482 0)
(0.00379625 0.00239132 0)
(0.00316415 -0.00699417 0)
(-0.00243062 0.00654967 0)
(-0.0271931 0.00769257 0)
(-0.0557009 0.0106383 0)
(-0.0969797 0.00931792 0)
(-0.134019 -0.00428902 0)
(-0.167729 -0.000443159 0)
(-0.198973 0.00124809 0)
(-0.225976 0.0107762 0)
(-0.253279 0.0549169 0)
(-0.272061 0.0509052 0)
(-0.267248 0.0168746 0)
(-0.257149 -0.00344264 0)
(-0.225823 -0.021852 0)
(-0.189268 -0.0304348 0)
(-0.141053 -0.0362096 0)
(-0.0961743 -0.032796 0)
(-0.0534746 -0.0286621 0)
(-0.0219909 -0.015789 0)
(-0.00533062 -0.00799204 0)
(0.00389127 0.00308048 0)
(0.00644984 -0.00585294 0)
(-0.00585189 0.0273733 0)
(-0.0503965 0.0518985 0)
(-0.108274 0.0676319 0)
(-0.176693 0.0705754 0)
(-0.246215 0.0671314 0)
(-0.318572 0.0626412 0)
(-0.374413 0.0563058 0)
(-0.428758 0.0522002 0)
(-0.452974 0.050029 0)
(-0.447023 0.0354535 0)
(-0.431971 -0.00281702 0)
(-0.40456 -0.0354988 0)
(-0.355836 -0.0669307 0)
(-0.298079 -0.0847918 0)
(-0.225781 -0.0955986 0)
(-0.157245 -0.0882421 0)
(-0.0910555 -0.0763045 0)
(-0.0415194 -0.0469545 0)
(-0.011439 -0.0255247 0)
(0.00519128 0.00141718 0)
(0.00589775 -0.007808 0)
(-0.0134961 0.0649872 0)
(-0.0839687 0.110192 0)
(-0.164732 0.139028 0)
(-0.257813 0.147587 0)
(-0.349182 0.140051 0)
(-0.436752 0.129127 0)
(-0.50997 0.11216 0)
(-0.568735 0.0912731 0)
(-0.601497 0.0707797 0)
(-0.60601 0.0296611 0)
(-0.586255 -0.0266139 0)
(-0.548745 -0.0796844 0)
(-0.484013 -0.129381 0)
(-0.406965 -0.160275 0)
(-0.310938 -0.178408 0)
(-0.218967 -0.166964 0)
(-0.128395 -0.145939 0)
(-0.0603977 -0.0945973 0)
(-0.0162739 -0.056036 0)
(0.00705434 -0.00280699 0)
(6.17761e-165 0.00147444 0)
(-0.0196883 0.116826 0)
(-0.118503 0.202401 0)
(-0.217072 0.240218 0)
(-0.332587 0.254092 0)
(-0.442262 0.244493 0)
(-0.549089 0.22238 0)
(-0.636793 0.187406 0)
(-0.708238 0.143194 0)
(-0.748396 0.087934 0)
(-0.758777 0.0206294 0)
(-0.739905 -0.0598506 0)
(-0.696395 -0.136998 0)
(-0.619317 -0.208994 0)
(-0.524655 -0.256796 0)
(-0.403516 -0.284348 0)
(-0.286446 -0.269342 0)
(-0.166152 -0.235865 0)
(-0.0782159 -0.157443 0)
(-0.015833 -0.0937641 0)
(0.0135474 -0.00696723 0)
(-5.05399e-266 0.00504573 0)
(-0.0762825 0.187797 0)
(-0.163348 0.305851 0)
(-0.279893 0.354818 0)
(-0.403957 0.372729 0)
(-0.529172 0.357583 0)
(-0.647711 0.324242 0)
(-0.750141 0.271559 0)
(-0.833261 0.203625 0)
(-0.887212 0.120596 0)
(-0.911522 0.0214244 0)
(-0.899446 -0.0899377 0)
(-0.856866 -0.200022 0)
(-0.771038 -0.302564 0)
(-0.660583 -0.37558 0)
(-0.512738 -0.418817 0)
(-0.366672 -0.403278 0)
(-0.211045 -0.357066 0)
(-0.0984372 -0.243077 0)
(-0.0137782 -0.150874 0)
(0.0159895 -0.00398516 0)
(-0.0201829 0.0808507 0)
(-0.105247 0.276872 0)
(-0.20502 0.406446 0)
(-0.332086 0.47921 0)
(-0.47104 0.502748 0)
(-0.610684 0.48702 0)
(-0.745516 0.442744 0)
(-0.864274 0.372204 0)
(-0.964789 0.280143 0)
(-1.03596 0.165998 0)
(-1.07712 0.0333517 0)
(-1.07754 -0.114771 0)
(-1.0414 -0.264435 0)
(-0.951449 -0.406045 0)
(-0.827831 -0.51362 0)
(-0.650817 -0.579806 0)
(-0.472414 -0.56879 0)
(-0.269131 -0.506219 0)
(-0.130094 -0.351643 0)
(-0.00137473 -0.209882 0)
(5.6717e-266 -0.00399738 0)
(-0.0146083 0.13278 0)
(-0.099354 0.373725 0)
(-0.223544 0.533337 0)
(-0.368285 0.62166 0)
(-0.524569 0.651704 0)
(-0.68106 0.632459 0)
(-0.832455 0.578248 0)
(-0.970298 0.490808 0)
(-1.09098 0.375745 0)
(-1.18492 0.232429 0)
(-1.24932 0.0633872 0)
(-1.26974 -0.126662 0)
(-1.24805 -0.325651 0)
(-1.16108 -0.518129 0)
(-1.02872 -0.675485 0)
(-0.823679 -0.777891 0)
(-0.607573 -0.78327 0)
(-0.350566 -0.705126 0)
(-0.170413 -0.506409 0)
(-0.00232718 -0.289974 0)
(2.23709e-24 -1.30515e-24 0)
(-0.01283 0.19164 0)
(-0.103023 0.484089 0)
(-0.243501 0.674018 0)
(-0.403147 0.778611 0)
(-0.57609 0.814472 0)
(-0.748581 0.793556 0)
(-0.917538 0.731309 0)
(-1.07533 0.629783 0)
(-1.21872 0.494638 0)
(-1.33873 0.323798 0)
(-1.43082 0.118745 0)
(-1.47825 -0.116526 0)
(-1.47918 -0.371769 0)
(-1.40437 -0.62649 0)
(-1.2712 -0.848885 0)
(-1.04198 -1.00361 0)
(-0.787198 -1.03831 0)
(-0.465645 -0.947884 0)
(-0.232638 -0.692846 0)
(-0.00417056 -0.387118 0)
(9.21601e-77 -5.59273e-25 0)
(-0.0113323 0.249347 0)
(-0.103402 0.606068 0)
(-0.25605 0.83435 0)
(-0.427687 0.954952 0)
(-0.614309 0.997763 0)
(-0.800746 0.974035 0)
(-0.984799 0.905407 0)
(-1.16137 0.791712 0)
(-1.32664 0.639388 0)
(-1.47395 0.443877 0)
(-1.59656 0.203153 0)
(-1.67684 -0.0794805 0)
(-1.70876 -0.399055 0)
(-1.65735 -0.728592 0)
(-1.53483 -1.03715 0)
(-1.29155 -1.26726 0)
(-1.00088 -1.35806 0)
(-0.609535 -1.2689 0)
(-0.309864 -0.962661 0)
(-0.00564913 -0.536439 0)
(2.57927e-164 -2.304e-77 0)
(-0.0119317 0.303223 0)
(-0.109275 0.727137 0)
(-0.273498 0.996227 0)
(-0.455242 1.1348 0)
(-0.651747 1.18606 0)
(-0.84772 1.16222 0)
(-1.0413 1.091 0)
(-1.23117 0.970288 0)
(-1.41255 0.806881 0)
(-1.58312 0.592905 0)
(-1.7335 0.32212 0)
(-1.84867 -0.00479115 0)
(-1.91727 -0.38954 0)
(-1.90191 -0.801363 0)
(-1.80616 -1.21165 0)
(-1.56814 -1.54091 0)
(-1.25686 -1.71559 0)
(-0.803006 -1.64603 0)
(-0.430284 -1.28589 0)
(-0.0699612 -0.70856 0)
(1.64138e-265 0.0122082 0)
(-0.0133314 0.371578 0)
(-0.113558 0.869814 0)
(-0.285067 1.18193 0)
(-0.471289 1.334 0)
(-0.670363 1.39151 0)
(-0.867843 1.36363 0)
(-1.06133 1.28956 0)
(-1.25436 1.16252 0)
(-1.44068 0.991434 0)
(-1.62397 0.764002 0)
(-1.79295 0.468526 0)
(-1.93793 0.10306 0)
(-2.04395 -0.345684 0)
(-2.07425 -0.84212 0)
(-2.02322 -1.37036 0)
(-1.81652 -1.82295 0)
(-1.50776 -2.12243 0)
(-1.00264 -2.1087 0)
(-0.536512 -1.69033 0)
(-0.0699616 -0.985007 0)
(0.0488327 -0.0659874 0)
(-0.0176302 0.425815 0)
(-0.126143 0.99596 0)
(-0.308824 1.3511 0)
(-0.497827 1.51683 0)
(-0.691419 1.58082 0)
(-0.879859 1.55061 0)
(-1.0576 1.47651 0)
(-1.23737 1.34799 0)
(-1.4088 1.17604 0)
(-1.58623 0.944417 0)
(-1.7545 0.636451 0)
(-1.91638 0.246281 0)
(-2.05119 -0.251154 0)
(-2.13349 -0.821709 0)
(-2.14373 -1.4648 0)
(-2.00249 -2.05839 0)
(-1.74053 -2.52356 0)
(-1.204 -2.62554 0)
(-0.680725 -2.21197 0)
(0.0361401 -1.30022 0)
(2.26203e-231 -0.0122082 0)
(-0.0232928 0.518242 0)
(-0.137886 1.16408 0)
(-0.325558 1.55744 0)
(-0.50828 1.71767 0)
(-0.683841 1.77662 0)
(-0.848539 1.73006 0)
(-0.992842 1.64886 0)
(-1.13912 1.51356 0)
(-1.27258 1.34073 0)
(-1.41886 1.1093 0)
(-1.56042 0.798104 0)
(-1.71459 0.399237 0)
(-1.85999 -0.129315 0)
(-1.98726 -0.750576 0)
(-2.07128 -1.50135 0)
(-2.03536 -2.23088 0)
(-1.88316 -2.92089 0)
(-1.41627 -3.18627 0)
(-0.879125 -2.92542 0)
(-0.00377987 -1.70085 0)
(5.58212e-202 4.47115e-184 0)
(-0.0402042 0.579856 0)
(-0.177389 1.29213 0)
(-0.379008 1.71753 0)
(-0.553003 1.86952 0)
(-0.692242 1.91933 0)
(-0.813749 1.85604 0)
(-0.896039 1.76664 0)
(-0.981897 1.62625 0)
(-1.04527 1.45596 0)
(-1.13049 1.23258 0)
(-1.21125 0.933012 0)
(-1.32957 0.54783 0)
(-1.45405 0.0241242 0)
(-1.61524 -0.606942 0)
(-1.76288 -1.40947 0)
(-1.87624 -2.24386 0)
(-1.87919 -3.12771 0)
(-1.60311 -3.63877 0)
(-1.125 -3.60233 0)
(-0.0104322 -2.20834 0)
(1.78846e-183 5.92276e-185 0)
(-0.0593943 0.743651 0)
(-0.217 1.50718 0)
(-0.418068 1.94232 0)
(-0.565864 2.0322 0)
(-0.648225 2.04435 0)
(-0.704555 1.93444 0)
(-0.702502 1.82109 0)
(-0.703499 1.66337 0)
(-0.67173 1.49085 0)
(-0.667208 1.27627 0)
(-0.657061 0.996671 0)
(-0.702877 0.643865 0)
(-0.770713 0.154153 0)
(-0.922558 -0.438786 0)
(-1.11118 -1.2439 0)
(-1.3594 -2.1114 0)
(-1.58535 -3.19963 0)
(-1.62292 -3.948 0)
(-1.44665 -4.53663 0)
(-0.456904 -2.87221 0)
(4.34062e-254 -4.47115e-184 0)
(-0.124863 0.842019 0)
(-0.349732 1.6376 0)
(-0.544357 2.06098 0)
(-0.64688 2.08986 0)
(-0.616133 2.0571 0)
(-0.56625 1.90529 0)
(-0.430064 1.76642 0)
(-0.311217 1.59437 0)
(-0.149674 1.42103 0)
(-0.0307986 1.22006 0)
(0.0968273 0.970511 0)
(0.142423 0.667022 0)
(0.163828 0.247072 0)
(0.0373117 -0.257378 0)
(-0.13836 -0.964765 0)
(-0.549263 -1.75857 0)
(-0.945219 -2.83834 0)
(-1.60712 -3.77681 0)
(-1.72292 -4.68106 0)
(-2.05488 -3.73109 0)
(-2.52215e-264 -0.21216 0)
(-0.179572 1.23939 0)
(-0.437411 1.93091 0)
(-0.55901 2.26163 0)
(-0.555253 2.10425 0)
(-0.366623 1.97756 0)
(-0.169993 1.74813 0)
(0.123065 1.57272 0)
(0.381751 1.38318 0)
(0.681336 1.21251 0)
(0.92301 1.03144 0)
(1.17036 0.822641 0)
(1.32019 0.581523 0)
(1.44176 0.2556 0)
(1.39196 -0.127267 0)
(1.27413 -0.667932 0)
(0.868818 -1.28776 0)
(0.375615 -2.17169 0)
(-0.49956 -3.12626 0)
(-1.17135 -4.17659 0)
(-1.85722 -4.45167 0)
(-0.848641 -2.29152 0)
(-0.399397 1.42446 0)
(-0.729703 1.9883 0)
(-0.541848 2.17294 0)
(-0.28952 1.88076 0)
(0.229539 1.67303 0)
(0.652222 1.40803 0)
(1.16399 1.2169 0)
(1.58026 1.03429 0)
(2.01983 0.881691 0)
(2.36717 0.733848 0)
(2.71004 0.575364 0)
(2.93143 0.40396 0)
(3.12711 0.178394 0)
(3.12308 -0.0741714 0)
(3.07371 -0.437756 0)
(2.68032 -0.837361 0)
(2.23959 -1.46926 0)
(1.25215 -2.19863 0)
(0.382554 -3.32582 0)
(-0.738343 -3.9771 0)
(-0.696836 -2.95827 0)
(-0.254594 2.43031 0)
(-0.0947887 2.06803 0)
(0.690949 1.87216 0)
(1.32672 1.32545 0)
(2.12178 1.05667 0)
(2.7216 0.807505 0)
(3.34433 0.651367 0)
(3.82629 0.523597 0)
(4.29847 0.42626 0)
(4.65941 0.340922 0)
(5.00194 0.25651 0)
(5.22073 0.169403 0)
(5.41329 0.060243 0)
(5.41999 -0.0612621 0)
(5.39436 -0.23491 0)
(5.05746 -0.431671 0)
(4.69342 -0.773665 0)
(3.78343 -1.23611 0)
(2.83597 -2.25217 0)
(1.07845 -3.32657 0)
(-0.0437707 -3.80075 0)
(1.66922 1.67151 0)
(2.71188 0.977001 0)
(4.55727 0.74984 0)
(5.39517 0.423504 0)
(6.25523 0.284406 0)
(6.75317 0.17491 0)
(7.21752 0.117788 0)
(7.52543 0.0778363 0)
(7.80962 0.0525014 0)
(8.00265 0.0334813 0)
(8.1807 0.0169135 0)
(8.27286 0.00124716 0)
(8.354 -0.0187128 0)
(8.31017 -0.0392298 0)
(8.26452 -0.0751484 0)
(7.99289 -0.109596 0)
(7.74777 -0.200788 0)
(6.99986 -0.295134 0)
(6.26658 -0.628464 0)
(4.04827 -1.0006 0)
(2.00901 -1.8221 0)
)
;

boundaryField
{
    movingWall
    {
        type            fixedValue;
        value           uniform (10 0 0);
    }
    fixedWalls
    {
        type            noSlip;
    }
    frontAndBack
    {
        type            empty;
    }
}


// ************************************************************************* //
