/*--------------------------------*- C++ -*----------------------------------*\
| =========                 |                                                 |
| \\      /  F ield         | OpenFOAM: The Open Source CFD Toolbox           |
|  \\    /   O peration     | Version:  4.1                                   |
|   \\  /    A nd           | Web:      www.OpenFOAM.org                      |
|    \\/     M anipulation  |                                                 |
\*---------------------------------------------------------------------------*/
FoamFile
{
    version     2.0;
    format      ascii;
    class       volVectorField;
    location    "0.0144";
    object      U;
}
// * * * * * * * * * * * * * * * * * * * * * * * * * * * * * * * * * * * * * //

dimensions      [0 1 -1 0 0 0 0];

internalField   nonuniform List<vector> 
441
(
(0.00345183 -0.00515742 0)
(0.00764332 -0.00333302 0)
(-0.000833659 -2.6295e-165 0)
(0.00147196 -2.11492e-266 0)
(-0.0117762 -0.0058885 0)
(-0.00147196 -2.50694e-232 0)
(-1.14629e-202 -3.30834e-203 0)
(-8.2685e-204 -3.99734e-228 0)
(-1.29496e-212 -1.67176e-213 0)
(-0.00462194 7.08543e-266 0)
(-0.0539014 0.018487 0)
(-0.0697208 0.0102651 0)
(-0.0813406 0.00520493 0)
(-0.0770499 0.00145067 0)
(-0.0706518 -0.000149539 0)
(-0.0568495 -0.00144192 0)
(-0.0432585 -0.00160724 0)
(-0.0269489 -0.00201178 0)
(-0.0128975 -0.000988251 0)
(-0.00306158 -0.000317426 0)
(0.00279382 0.00181214 0)
(0.00266894 -0.00568597 0)
(-0.00647686 0.00771199 0)
(-0.0337402 0.00772614 0)
(-0.0615471 0.0125425 0)
(-0.0984481 0.00808686 0)
(-0.127449 -0.00711767 0)
(-0.151898 -0.0010357 0)
(-0.173386 0.000862846 0)
(-0.191131 0.00908636 0)
(-0.210607 0.0476638 0)
(-0.224624 0.045021 0)
(-0.221508 0.017506 0)
(-0.217068 0.00172126 0)
(-0.197616 -0.0125255 0)
(-0.175029 -0.0200969 0)
(-0.141919 -0.0267389 0)
(-0.108511 -0.0281597 0)
(-0.0710697 -0.0293232 0)
(-0.0383049 -0.0226407 0)
(-0.0132813 -0.0161392 0)
(0.00218165 -0.00190255 0)
(0.00583626 -0.00213686 0)
(-0.00890456 0.0326229 0)
(-0.0549189 0.0534076 0)
(-0.107336 0.0629223 0)
(-0.163145 0.0590249 0)
(-0.21742 0.0501735 0)
(-0.27006 0.0441251 0)
(-0.305911 0.0378942 0)
(-0.341335 0.0356092 0)
(-0.353319 0.0371994 0)
(-0.343349 0.030096 0)
(-0.331349 0.00376936 0)
(-0.31401 -0.0182225 0)
(-0.283931 -0.0403285 0)
(-0.248836 -0.055158 0)
(-0.201591 -0.0680335 0)
(-0.153825 -0.0715439 0)
(-0.100705 -0.0724637 0)
(-0.0549227 -0.0578108 0)
(-0.0187399 -0.0410312 0)
(0.00315568 -0.00863342 0)
(0.00661222 -0.00270191 0)
(-0.0109849 0.0700688 0)
(-0.0768441 0.106406 0)
(-0.144751 0.122605 0)
(-0.217048 0.11842 0)
(-0.28326 0.102134 0)
(-0.342342 0.0883848 0)
(-0.387862 0.0727081 0)
(-0.421854 0.0578842 0)
(-0.437332 0.0475061 0)
(-0.433504 0.0226932 0)
(-0.416483 -0.0126685 0)
(-0.391616 -0.0459058 0)
(-0.351601 -0.0784597 0)
(-0.305827 -0.102349 0)
(-0.246011 -0.122755 0)
(-0.186211 -0.12868 0)
(-0.119625 -0.12948 0)
(-0.0637363 -0.104037 0)
(-0.018839 -0.0754338 0)
(0.00549073 -0.0171792 0)
(6.25291e-165 0.00165306 0)
(-0.0145912 0.11569 0)
(-0.100517 0.186399 0)
(-0.177087 0.202029 0)
(-0.261689 0.196725 0)
(-0.33619 0.174145 0)
(-0.404582 0.147896 0)
(-0.455732 0.116812 0)
(-0.494339 0.0846622 0)
(-0.510766 0.0495531 0)
(-0.507712 0.00956116 0)
(-0.489218 -0.0377516 0)
(-0.459148 -0.0825501 0)
(-0.411859 -0.126133 0)
(-0.357169 -0.159899 0)
(-0.285271 -0.187998 0)
(-0.214506 -0.196747 0)
(-0.133003 -0.195529 0)
(-0.0683209 -0.157187 0)
(-0.0127204 -0.110781 0)
(0.0119655 -0.0209732 0)
(-5.44062e-266 0.00502114 0)
(-0.0699646 0.174914 0)
(-0.134572 0.267252 0)
(-0.220415 0.285488 0)
(-0.30365 0.277516 0)
(-0.383955 0.246114 0)
(-0.454567 0.208406 0)
(-0.511304 0.162768 0)
(-0.552574 0.113439 0)
(-0.574017 0.06028 0)
(-0.576482 0.00119685 0)
(-0.559117 -0.0619539 0)
(-0.527351 -0.12323 0)
(-0.474189 -0.181459 0)
(-0.411522 -0.228662 0)
(-0.32742 -0.266977 0)
(-0.244636 -0.280208 0)
(-0.146816 -0.277921 0)
(-0.0714063 -0.222953 0)
(-0.00104365 -0.158439 0)
(0.0166251 -0.0172947 0)
(-0.0200845 0.0753951 0)
(-0.093907 0.246712 0)
(-0.166408 0.337607 0)
(-0.255416 0.369601 0)
(-0.345656 0.359898 0)
(-0.431617 0.324084 0)
(-0.509072 0.274829 0)
(-0.571942 0.214313 0)
(-0.619358 0.147277 0)
(-0.646275 0.0734281 0)
(-0.653657 -0.00502379 0)
(-0.638836 -0.0869221 0)
(-0.606602 -0.166797 0)
(-0.548854 -0.242257 0)
(-0.479081 -0.305503 0)
(-0.381678 -0.355616 0)
(-0.287174 -0.375518 0)
(-0.168223 -0.369999 0)
(-0.0862373 -0.300465 0)
(0.0114168 -0.200097 0)
(5.30665e-266 -0.00415628 0)
(-0.014236 0.121351 0)
(-0.0845958 0.322279 0)
(-0.177466 0.429575 0)
(-0.279041 0.465688 0)
(-0.380404 0.454293 0)
(-0.475868 0.410149 0)
(-0.561029 0.349252 0)
(-0.632308 0.273246 0)
(-0.686979 0.188152 0)
(-0.721945 0.0942918 0)
(-0.736498 -0.0060951 0)
(-0.726711 -0.109722 0)
(-0.696566 -0.213106 0)
(-0.636419 -0.310333 0)
(-0.560446 -0.39546 0)
(-0.450639 -0.461294 0)
(-0.341798 -0.492389 0)
(-0.204014 -0.483042 0)
(-0.107105 -0.398916 0)
(0.00032459 -0.252519 0)
(1.5156e-24 -2.16961e-24 0)
(-0.0119349 0.171404 0)
(-0.0862407 0.408188 0)
(-0.193559 0.531024 0)
(-0.30719 0.571117 0)
(-0.421437 0.556007 0)
(-0.527392 0.503687 0)
(-0.622434 0.430858 0)
(-0.703184 0.339663 0)
(-0.766819 0.236876 0)
(-0.811161 0.1227 0)
(-0.834158 0.000115341 0)
(-0.831893 -0.127014 0)
(-0.806293 -0.25622 0)
(-0.746612 -0.378794 0)
(-0.666196 -0.489662 0)
(-0.543687 -0.57538 0)
(-0.418646 -0.619232 0)
(-0.254679 -0.607008 0)
(-0.137997 -0.499729 0)
(-0.00258921 -0.311451 0)
(6.03946e-77 -3.789e-25 0)
(-0.0104074 0.220499 0)
(-0.0869639 0.505588 0)
(-0.207085 0.651712 0)
(-0.332817 0.694536 0)
(-0.459912 0.675479 0)
(-0.577198 0.611676 0)
(-0.682216 0.525776 0)
(-0.773346 0.417797 0)
(-0.846585 0.296542 0)
(-0.902064 0.161407 0)
(-0.935699 0.0147345 0)
(-0.944373 -0.138333 0)
(-0.92738 -0.298463 0)
(-0.872651 -0.452081 0)
(-0.791265 -0.598328 0)
(-0.657669 -0.712074 0)
(-0.514112 -0.780507 0)
(-0.318678 -0.76937 0)
(-0.174627 -0.647836 0)
(-0.00614615 -0.39996 0)
(1.61855e-164 -1.50987e-77 0)
(-0.0111731 0.265912 0)
(-0.0954871 0.603204 0)
(-0.230945 0.775106 0)
(-0.370523 0.822129 0)
(-0.510807 0.799286 0)
(-0.639403 0.724592 0)
(-0.753562 0.626465 0)
(-0.854535 0.503217 0)
(-0.936701 0.365524 0)
(-1.00408 0.211525 0)
(-1.04964 0.0428359 0)
(-1.0734 -0.135337 0)
(-1.06982 -0.32688 0)
(-1.02772 -0.515095 0)
(-0.951586 -0.702539 0)
(-0.812877 -0.853693 0)
(-0.650799 -0.9542 0)
(-0.421255 -0.949577 0)
(-0.240001 -0.803988 0)
(-0.0568488 -0.492831 0)
(7.05832e-266 0.00711542 0)
(-0.0131261 0.328472 0)
(-0.105226 0.72765 0)
(-0.255519 0.928711 0)
(-0.407946 0.975571 0)
(-0.559597 0.946089 0)
(-0.697885 0.85501 0)
(-0.818993 0.742098 0)
(-0.928215 0.601135 0)
(-1.01781 0.446607 0)
(-1.09688 0.274191 0)
(-1.15552 0.0839328 0)
(-1.19786 -0.118816 0)
(-1.21394 -0.344765 0)
(-1.19314 -0.572024 0)
(-1.13282 -0.814018 0)
(-0.997144 -1.01673 0)
(-0.819042 -1.17258 0)
(-0.540486 -1.18745 0)
(-0.296854 -1.01043 0)
(-0.0415697 -0.650227 0)
(0.0284617 -0.0588135 0)
(-0.0182164 0.380102 0)
(-0.125888 0.8427 0)
(-0.29892 1.07513 0)
(-0.467828 1.12314 0)
(-0.629623 1.08768 0)
(-0.775437 0.98175 0)
(-0.89811 0.856107 0)
(-1.01139 0.700866 0)
(-1.10305 0.534062 0)
(-1.19133 0.34903 0)
(-1.26097 0.144193 0)
(-1.32531 -0.0764086 0)
(-1.36598 -0.330419 0)
(-1.38004 -0.595525 0)
(-1.3493 -0.895926 0)
(-1.23626 -1.16784 0)
(-1.05475 -1.40627 0)
(-0.715985 -1.47483 0)
(-0.401483 -1.29632 0)
(0.0393559 -0.820896 0)
(1.51928e-231 -0.00711542 0)
(-0.0250887 0.475623 0)
(-0.148679 1.01162 0)
(-0.342558 1.27472 0)
(-0.524807 1.30768 0)
(-0.691889 1.25708 0)
(-0.840203 1.12413 0)
(-0.95858 0.980178 0)
(-1.07001 0.806334 0)
(-1.1576 0.627258 0)
(-1.24921 0.432122 0)
(-1.32532 0.217296 0)
(-1.40897 -0.0141332 0)
(-1.47681 -0.291843 0)
(-1.53388 -0.58985 0)
(-1.55224 -0.960522 0)
(-1.49057 -1.31503 0)
(-1.34216 -1.69604 0)
(-0.986114 -1.85167 0)
(-0.595483 -1.76381 0)
(-0.00210731 -1.0751 0)
(3.65657e-202 3.21947e-184 0)
(-0.0432685 0.546557 0)
(-0.200555 1.15402 0)
(-0.427303 1.44708 0)
(-0.625541 1.46677 0)
(-0.786876 1.40112 0)
(-0.927471 1.24474 0)
(-1.0244 1.08525 0)
(-1.12049 0.898249 0)
(-1.18782 0.713144 0)
(-1.27074 0.516833 0)
(-1.33971 0.30416 0)
(-1.43607 0.076576 0)
(-1.52286 -0.204514 0)
(-1.63234 -0.517592 0)
(-1.70696 -0.935772 0)
(-1.74323 -1.37608 0)
(-1.65948 -1.9021 0)
(-1.36013 -2.22661 0)
(-0.896265 -2.2637 0)
(-0.00354788 -1.43362 0)
(1.28779e-183 2.8182e-184 0)
(-0.0637456 0.727067 0)
(-0.252382 1.40008 0)
(-0.498372 1.70885 0)
(-0.697791 1.66856 0)
(-0.836934 1.56584 0)
(-0.953239 1.36212 0)
(-1.01283 1.17702 0)
(-1.07654 0.970029 0)
(-1.10689 0.778599 0)
(-1.16191 0.584372 0)
(-1.20419 0.381172 0)
(-1.28938 0.169567 0)
(-1.37429 -0.0997299 0)
(-1.51195 -0.404949 0)
(-1.64092 -0.856905 0)
(-1.78097 -1.36202 0)
(-1.83965 -2.09102 0)
(-1.69911 -2.6218 0)
(-1.35643 -3.14279 0)
(-0.384574 -2.00421 0)
(3.31009e-254 -3.21947e-184 0)
(-0.129308 0.847811 0)
(-0.390407 1.57514 0)
(-0.644589 1.88623 0)
(-0.822041 1.7949 0)
(-0.879961 1.65481 0)
(-0.928346 1.41493 0)
(-0.898805 1.20855 0)
(-0.892782 0.990374 0)
(-0.849008 0.798821 0)
(-0.847921 0.615021 0)
(-0.83325 0.431728 0)
(-0.883714 0.25006 0)
(-0.932533 0.0182722 0)
(-1.08247 -0.244992 0)
(-1.22614 -0.663766 0)
(-1.51577 -1.16931 0)
(-1.71127 -1.96788 0)
(-2.04735 -2.71038 0)
(-1.86132 -3.51784 0)
(-1.83405 -2.84866 0)
(-2.17687e-264 -0.187905 0)
(-0.181775 1.26717 0)
(-0.469158 1.91931 0)
(-0.650854 2.16203 0)
(-0.730945 1.90403 0)
(-0.648511 1.6857 0)
(-0.574273 1.38073 0)
(-0.418582 1.14799 0)
(-0.308035 0.920358 0)
(-0.165549 0.735496 0)
(-0.0824675 0.569608 0)
(0.0115219 0.414933 0)
(0.0281671 0.271357 0)
(0.0484515 0.0924997 0)
(-0.0492619 -0.105957 0)
(-0.151771 -0.437713 0)
(-0.453631 -0.864205 0)
(-0.755214 -1.58967 0)
(-1.31452 -2.43519 0)
(-1.60945 -3.43927 0)
(-1.86593 -3.7556 0)
(-0.751618 -2.03509 0)
(-0.396375 1.46349 0)
(-0.732343 2.015 0)
(-0.582114 2.14145 0)
(-0.398153 1.77578 0)
(0.02151 1.49927 0)
(0.321395 1.1778 0)
(0.688632 0.944704 0)
(0.945406 0.735801 0)
(1.21388 0.574984 0)
(1.38839 0.440277 0)
(1.56517 0.321684 0)
(1.6443 0.219405 0)
(1.73436 0.0953447 0)
(1.68409 -0.0326552 0)
(1.65415 -0.259627 0)
(1.36354 -0.544378 0)
(1.09083 -1.10474 0)
(0.355314 -1.81894 0)
(-0.213346 -2.95903 0)
(-0.98099 -3.63923 0)
(-0.681332 -2.82759 0)
(-0.247823 2.45742 0)
(-0.0674306 2.09953 0)
(0.717002 1.87918 0)
(1.31905 1.29464 0)
(2.04559 0.988992 0)
(2.54887 0.709982 0)
(3.05079 0.532975 0)
(3.39607 0.393735 0)
(3.72138 0.294885 0)
(3.93535 0.219224 0)
(4.14068 0.15716 0)
(4.24645 0.106145 0)
(4.36409 0.0464952 0)
(4.35025 -0.0161807 0)
(4.36721 -0.130143 0)
(4.14017 -0.280591 0)
(3.93553 -0.609112 0)
(3.2159 -1.09342 0)
(2.46026 -2.15744 0)
(0.904674 -3.2439 0)
(-0.0461856 -3.77377 0)
(1.67452 1.67735 0)
(2.73839 0.984703 0)
(4.59998 0.754854 0)
(5.43422 0.422907 0)
(6.2681 0.278138 0)
(6.72072 0.164442 0)
(7.12505 0.104942 0)
(7.36432 0.0643857 0)
(7.57626 0.0402204 0)
(7.69992 0.0240749 0)
(7.81776 0.0122878 0)
(7.86698 0.00294758 0)
(7.9294 -0.00907969 0)
(7.89919 -0.0220007 0)
(7.90017 -0.0513152 0)
(7.70839 -0.0844824 0)
(7.55703 -0.180595 0)
(6.90046 -0.287812 0)
(6.22561 -0.639029 0)
(4.03735 -1.02355 0)
(2.02622 -1.85492 0)
)
;

boundaryField
{
    movingWall
    {
        type            fixedValue;
        value           uniform (10 0 0);
    }
    fixedWalls
    {
        type            noSlip;
    }
    frontAndBack
    {
        type            empty;
    }
}


// ************************************************************************* //
