/*--------------------------------*- C++ -*----------------------------------*\
| =========                 |                                                 |
| \\      /  F ield         | OpenFOAM: The Open Source CFD Toolbox           |
|  \\    /   O peration     | Version:  4.1                                   |
|   \\  /    A nd           | Web:      www.OpenFOAM.org                      |
|    \\/     M anipulation  |                                                 |
\*---------------------------------------------------------------------------*/
FoamFile
{
    version     2.0;
    format      ascii;
    class       volScalarField;
    location    "0.0021";
    object      p;
}
// * * * * * * * * * * * * * * * * * * * * * * * * * * * * * * * * * * * * * //

dimensions      [1 -1 -2 0 0 0 0];

internalField   nonuniform List<scalar> 
441
(
100000
99999.9
99999.7
100000
100000
99999.5
100000
100000
100000
100001
100001
100001
100001
100001
100000
100001
100000
100001
100000
100001
100000
100000
100000
100000
100000
100000
100000
100000
100000
100000
100000
100001
100000
100000
100000
100000
100000
100000
100001
100000
100001
100000
100000
99999.9
99999.9
99999.9
100000
99999.9
100000
100000
100000
100001
100001
100001
100001
100001
100001
100001
100001
100001
100001
100001
100001
100000
99999.9
99999.9
99999.9
99999.9
100000
100000
100000
100000
100000
100000
100000
100001
100001
100001
100001
100001
100001
100001
100001
100001
100000
99999.4
99999.6
99999.5
99999.6
99999.7
99999.8
100000
100000
100000
100000
100001
100001
100001
100001
100001
100001
100001
100001
100001
100001
99998.4
99999.2
99999
99999.3
99999.3
99999.5
99999.6
99999.8
100000
100000
100000
100001
100001
100001
100001
100001
100001
100001
100001
100002
100001
99998
99998.4
99998.4
99998.7
99998.8
99999.1
99999.3
99999.6
99999.8
100000
100000
100001
100001
100001
100001
100002
100002
100002
100002
100002
100001
99997.8
99998
99998
99998.2
99998.3
99998.7
99998.9
99999.3
99999.6
100000
100000
100001
100001
100001
100002
100002
100002
100002
100002
100003
100002
99996.8
99997
99997
99997.3
99997.6
99998
99998.3
99998.9
99999.3
99999.9
100000
100001
100001
100002
100002
100003
100003
100003
100003
100004
100003
99996.2
99996.2
99996.3
99996.7
99996.9
99997.4
99997.8
99998.5
99999
99999.7
100000
100001
100002
100002
100003
100003
100004
100004
100004
100005
100003
99994.7
99994.8
99994.9
99995.4
99995.7
99996.4
99997
99997.8
99998.6
99999.5
100000
100001
100002
100003
100004
100004
100005
100005
100006
100006
100006
99993.7
99993.8
99994
99994.5
99994.8
99995.6
99996.3
99997.3
99998.2
99999.3
100000
100002
100003
100004
100005
100005
100006
100006
100007
100007
100007
99991.5
99991.7
99991.8
99992.6
99993.1
99994.2
99995.1
99996.4
99997.6
99999
100000
100002
100003
100004
100006
100007
100008
100008
100008
100009
100007
99990.2
99990.5
99990.6
99991.5
99992
99993.3
99994.2
99995.8
99997.1
99998.7
100000
100002
100004
100005
100007
100008
100009
100010
100010
100011
100010
99986.6
99987.2
99987.4
99988.8
99989.5
99991.4
99992.6
99994.6
99996.3
99998.3
100000
100002
100005
100006
100009
100010
100012
100012
100014
100014
100012
99985.3
99986
99985.9
99987.6
99988.2
99990.3
99991.7
99994
99995.8
99998
100000
100002
100005
100007
100009
100011
100013
100014
100016
100015
100014
99978.9
99980.8
99980.7
99983.9
99984.9
99988
99989.8
99992.7
99995
99997.6
100000
100002
100006
100008
100011
100013
100018
100018
100025
100020
100035
99977.8
99979.7
99979.3
99982.6
99983.7
99987.1
99989
99992.1
99994.5
99997.2
99999.9
100002
100006
100008
100012
100013
100018
100019
100025
100024
100033
99963.8
99971.4
99971
99978
99979.6
99984.8
99987.2
99991.1
99993.8
99996.9
99999.9
100002
100006
100008
100013
100015
100022
100023
100034
100034
100047
99962.7
99970.8
99970.1
99977
99978.9
99984.2
99986.8
99990.8
99993.5
99996.7
99999.6
100002
100006
100008
100013
100014
100021
100022
100033
100034
100049
99918
99960
99960.6
99974.1
99976.5
99983.3
99986.1
99990.5
99993.3
99996.6
99999.7
100002
100006
100008
100013
100015
100024
100026
100045
100051
100102
)
;

boundaryField
{
    movingWall
    {
        type            zeroGradient;
    }
    fixedWalls
    {
        type            zeroGradient;
    }
    frontAndBack
    {
        type            empty;
    }
}


// ************************************************************************* //
