/*--------------------------------*- C++ -*----------------------------------*\
| =========                 |                                                 |
| \\      /  F ield         | OpenFOAM: The Open Source CFD Toolbox           |
|  \\    /   O peration     | Version:  4.1                                   |
|   \\  /    A nd           | Web:      www.OpenFOAM.org                      |
|    \\/     M anipulation  |                                                 |
\*---------------------------------------------------------------------------*/
FoamFile
{
    version     2.0;
    format      ascii;
    class       volScalarField;
    location    "0.0022";
    object      p;
}
// * * * * * * * * * * * * * * * * * * * * * * * * * * * * * * * * * * * * * //

dimensions      [1 -1 -2 0 0 0 0];

internalField   nonuniform List<scalar> 
441
(
100000
99999.9
99999.7
100000
100000
99999.5
100000
100000
100000
100001
100001
100001
100001
100001
100000
100001
100000
100001
100000
100001
100000
100000
100000
100000
100000
100000
100000
100000
100000
100000
100000
100001
100000
100000
100000
100000
100000
100000
100001
100000
100001
100000
100000
99999.9
99999.9
99999.9
100000
99999.9
100000
100000
100000
100001
100001
100001
100001
100001
100001
100001
100001
100001
100001
100001
100001
100000
99999.9
99999.9
99999.9
100000
100000
100000
100000
100000
100000
100000
100000
100001
100001
100001
100001
100001
100001
100001
100001
100001
100000
99999.4
99999.6
99999.5
99999.7
99999.7
99999.8
100000
100000
100000
100000
100001
100001
100001
100001
100001
100001
100001
100001
100001
100001
99998.5
99999.2
99999
99999.3
99999.3
99999.5
99999.7
99999.8
100000
100000
100000
100001
100001
100001
100001
100001
100001
100001
100001
100001
100001
99998
99998.4
99998.5
99998.7
99998.8
99999.1
99999.3
99999.6
99999.8
100000
100000
100001
100001
100001
100001
100002
100002
100002
100002
100002
100001
99997.9
99998
99998
99998.3
99998.4
99998.7
99999
99999.3
99999.6
100000
100000
100001
100001
100001
100002
100002
100002
100002
100002
100003
100002
99996.9
99997
99997.1
99997.4
99997.6
99998
99998.4
99998.9
99999.4
99999.9
100000
100001
100001
100002
100002
100003
100003
100003
100003
100004
100003
99996.3
99996.3
99996.4
99996.8
99997
99997.5
99997.9
99998.5
99999.1
99999.8
100000
100001
100002
100002
100003
100003
100004
100004
100004
100004
100003
99994.8
99994.9
99995.1
99995.5
99995.8
99996.5
99997.1
99997.9
99998.6
99999.6
100000
100001
100002
100003
100004
100004
100005
100005
100005
100006
100006
99993.9
99994
99994.1
99994.6
99995
99995.7
99996.4
99997.4
99998.3
99999.3
100000
100001
100003
100003
100004
100005
100006
100006
100006
100007
100007
99991.7
99991.9
99992
99992.8
99993.3
99994.3
99995.2
99996.5
99997.7
99999
100000
100002
100003
100004
100006
100007
100008
100008
100008
100009
100007
99990.5
99990.7
99990.8
99991.7
99992.2
99993.4
99994.4
99995.8
99997.2
99998.8
100000
100002
100004
100005
100007
100007
100009
100009
100010
100010
100010
99986.9
99987.5
99987.6
99989.1
99989.7
99991.6
99992.8
99994.7
99996.4
99998.3
100000
100002
100004
100006
100008
100009
100012
100012
100014
100013
100012
99985.7
99986.3
99986.3
99987.9
99988.5
99990.6
99991.9
99994.1
99995.9
99998
100000
100002
100005
100006
100009
100010
100013
100013
100015
100015
100013
99979.4
99981.2
99981.1
99984.2
99985.2
99988.3
99990
99992.8
99995
99997.5
100000
100002
100005
100007
100011
100013
100018
100017
100025
100020
100035
99978.3
99980.2
99979.8
99983
99984
99987.3
99989.2
99992.2
99994.5
99997.2
99999.9
100002
100005
100007
100011
100013
100018
100018
100025
100024
100032
99964.5
99972.1
99971.5
99978.4
99980
99985.1
99987.4
99991.2
99993.8
99996.8
99999.8
100002
100006
100008
100013
100015
100022
100023
100034
100033
100046
99963.5
99971.6
99970.7
99977.4
99979.2
99984.4
99986.9
99990.8
99993.5
99996.6
99999.5
100002
100006
100008
100012
100014
100020
100021
100032
100033
100049
99919
99961
99961.4
99974.7
99976.9
99983.6
99986.3
99990.6
99993.4
99996.5
99999.6
100002
100006
100008
100013
100015
100023
100026
100045
100050
100102
)
;

boundaryField
{
    movingWall
    {
        type            zeroGradient;
    }
    fixedWalls
    {
        type            zeroGradient;
    }
    frontAndBack
    {
        type            empty;
    }
}


// ************************************************************************* //
