/*--------------------------------*- C++ -*----------------------------------*\
| =========                 |                                                 |
| \\      /  F ield         | OpenFOAM: The Open Source CFD Toolbox           |
|  \\    /   O peration     | Version:  4.1                                   |
|   \\  /    A nd           | Web:      www.OpenFOAM.org                      |
|    \\/     M anipulation  |                                                 |
\*---------------------------------------------------------------------------*/
FoamFile
{
    version     2.0;
    format      ascii;
    class       volVectorField;
    location    "0.162";
    object      U;
}
// * * * * * * * * * * * * * * * * * * * * * * * * * * * * * * * * * * * * * //

dimensions      [0 1 -1 0 0 0 0];

internalField   nonuniform List<vector> 
6400
(
(8.03081e-06 -7.99582e-06 0)
(3.03151e-05 -1.16492e-05 0)
(4.85794e-05 -8.09784e-06 0)
(5.66459e-05 1.19717e-06 0)
(5.02811e-05 1.4222e-05 0)
(2.69935e-05 2.94015e-05 0)
(-1.44452e-05 4.55883e-05 0)
(-7.43446e-05 6.19686e-05 0)
(-0.000152364 7.79711e-05 0)
(-0.000247708 9.31987e-05 0)
(-0.000359267 0.000107379 0)
(-0.000485721 0.000120331 0)
(-0.00062561 0.000131938 0)
(-0.000777392 0.000142128 0)
(-0.000939477 0.000150867 0)
(-0.00111026 0.000158145 0)
(-0.00128814 0.000163971 0)
(-0.00147154 0.000168367 0)
(-0.00165891 0.000171365 0)
(-0.00184874 0.000173006 0)
(-0.00203958 0.000173336 0)
(-0.00223002 0.000172406 0)
(-0.00241872 0.000170269 0)
(-0.00260438 0.000166981 0)
(-0.00278579 0.000162599 0)
(-0.00296177 0.000157182 0)
(-0.00313123 0.000150789 0)
(-0.00329314 0.000143481 0)
(-0.00344653 0.000135319 0)
(-0.00359051 0.000126365 0)
(-0.00372424 0.000116679 0)
(-0.00384695 0.000106324 0)
(-0.00395796 9.53639e-05 0)
(-0.00405663 8.38612e-05 0)
(-0.00414241 7.18803e-05 0)
(-0.00421481 5.9486e-05 0)
(-0.00427342 4.67441e-05 0)
(-0.00431789 3.37213e-05 0)
(-0.00434795 2.04853e-05 0)
(-0.00436342 7.1049e-06 0)
(-0.00436417 -6.34987e-06 0)
(-0.00435015 -1.98079e-05 0)
(-0.00432141 -3.31967e-05 0)
(-0.00427805 -4.6443e-05 0)
(-0.00422028 -5.94719e-05 0)
(-0.00414838 -7.2208e-05 0)
(-0.0040627 -8.45747e-05 0)
(-0.00396368 -9.64949e-05 0)
(-0.00385187 -0.000107891 0)
(-0.00372787 -0.000118684 0)
(-0.00359238 -0.000128797 0)
(-0.00344618 -0.000138152 0)
(-0.00329014 -0.000146673 0)
(-0.00312522 -0.000154283 0)
(-0.00295244 -0.000160908 0)
(-0.00277292 -0.000166477 0)
(-0.00258784 -0.00017092 0)
(-0.00239848 -0.000174171 0)
(-0.00220615 -0.000176168 0)
(-0.00201227 -0.000176854 0)
(-0.00181829 -0.000176177 0)
(-0.00162572 -0.000174091 0)
(-0.00143611 -0.000170561 0)
(-0.00125108 -0.000165558 0)
(-0.00107223 -0.000159066 0)
(-0.000901194 -0.000151082 0)
(-0.000739615 -0.000141621 0)
(-0.0005891 -0.000130719 0)
(-0.000451214 -0.00011844 0)
(-0.000327447 -0.000104884 0)
(-0.00021917 -9.02004e-05 0)
(-0.000127582 -7.46017e-05 0)
(-5.3639e-05 -5.839e-05 0)
(2.04851e-06 -4.19887e-05 0)
(3.93502e-05 -2.59892e-05 0)
(5.8803e-05 -1.12149e-05 0)
(6.18643e-05 1.1957e-06 0)
(5.12308e-05 9.70818e-06 0)
(3.12719e-05 1.2413e-05 0)
(8.16597e-06 8.09935e-06 0)
(1.18129e-05 -3.02548e-05 0)
(4.56092e-05 -4.51272e-05 0)
(6.53703e-05 -2.70101e-05 0)
(5.68026e-05 1.3769e-05 0)
(9.85388e-06 6.8994e-05 0)
(-8.1609e-05 0.000132539 0)
(-0.000220802 0.000199942 0)
(-0.000408719 0.000267999 0)
(-0.000644713 0.000334436 0)
(-0.000926926 0.000397655 0)
(-0.00125263 0.000456546 0)
(-0.00161849 0.000510359 0)
(-0.00202072 0.000558605 0)
(-0.00245528 0.000600985 0)
(-0.00291794 0.000637342 0)
(-0.00340438 0.000667624 0)
(-0.00391026 0.000691857 0)
(-0.00443126 0.000710126 0)
(-0.00496313 0.000722558 0)
(-0.0055017 0.000729316 0)
(-0.00604292 0.000730586 0)
(-0.00658286 0.000726574 0)
(-0.00711777 0.0007175 0)
(-0.00764401 0.000703593 0)
(-0.00815815 0.000685091 0)
(-0.00865688 0.00066224 0)
(-0.00913713 0.000635288 0)
(-0.00959595 0.000604486 0)
(-0.0100306 0.00057009 0)
(-0.0104386 0.000532359 0)
(-0.0108175 0.00049155 0)
(-0.0111651 0.000447928 0)
(-0.0114795 0.000401756 0)
(-0.0117589 0.000353302 0)
(-0.0120018 0.000302837 0)
(-0.0122067 0.000250634 0)
(-0.0123725 0.000196969 0)
(-0.0124981 0.000142126 0)
(-0.0125829 8.63884e-05 0)
(-0.0126264 3.00474e-05 0)
(-0.012628 -2.66021e-05 0)
(-0.0125879 -8.32606e-05 0)
(-0.012506 -0.000139623 0)
(-0.0123828 -0.000195381 0)
(-0.0122187 -0.000250219 0)
(-0.0120146 -0.000303821 0)
(-0.0117716 -0.000355864 0)
(-0.0114908 -0.000406025 0)
(-0.0111739 -0.000453977 0)
(-0.0108225 -0.000499394 0)
(-0.0104387 -0.000541949 0)
(-0.0100246 -0.000581317 0)
(-0.00958278 -0.000617177 0)
(-0.00911587 -0.000649213 0)
(-0.00862678 -0.000677116 0)
(-0.00811866 -0.000700586 0)
(-0.00759484 -0.000719334 0)
(-0.00705887 -0.000733087 0)
(-0.00651448 -0.000741588 0)
(-0.00596557 -0.000744601 0)
(-0.00541621 -0.000741913 0)
(-0.00487058 -0.000733341 0)
(-0.004333 -0.000718735 0)
(-0.00380785 -0.000697985 0)
(-0.00329959 -0.00067103 0)
(-0.00281266 -0.000637866 0)
(-0.00235149 -0.000598562 0)
(-0.00192039 -0.000553277 0)
(-0.00152354 -0.000502283 0)
(-0.00116483 -0.000446002 0)
(-0.000847826 -0.000385053 0)
(-0.000575547 -0.00032031 0)
(-0.000350332 -0.000253003 0)
(-0.000173573 -0.000184836 0)
(-4.54013e-05 -0.000118161 0)
(3.57331e-05 -5.6216e-05 0)
(7.35927e-05 -3.42528e-06 0)
(7.47931e-05 3.42456e-05 0)
(4.97068e-05 4.89541e-05 0)
(1.2674e-05 3.11349e-05 0)
(8.46233e-06 -4.86956e-05 0)
(2.82798e-05 -6.49523e-05 0)
(2.11393e-05 -1.93818e-05 0)
(-3.14003e-05 6.84117e-05 0)
(-0.000142776 0.000183334 0)
(-0.00032144 0.000314051 0)
(-0.000571993 0.00045217 0)
(-0.000895984 0.00059154 0)
(-0.00129262 0.0007277 0)
(-0.00175933 0.000857446 0)
(-0.0022922 0.000978511 0)
(-0.00288635 0.00108932 0)
(-0.00353619 0.00118881 0)
(-0.00423564 0.00127633 0)
(-0.00497831 0.00135148 0)
(-0.00575761 0.00141411 0)
(-0.00656687 0.00146423 0)
(-0.00739943 0.00150198 0)
(-0.00824867 0.00152759 0)
(-0.00910809 0.00154136 0)
(-0.00997137 0.00154366 0)
(-0.0108323 0.0015349 0)
(-0.0116851 0.00151552 0)
(-0.0125238 0.001486 0)
(-0.0133432 0.00144681 0)
(-0.0141379 0.00139846 0)
(-0.014903 0.00134148 0)
(-0.015634 0.00127637 0)
(-0.0163265 0.00120369 0)
(-0.0169763 0.00112397 0)
(-0.0175798 0.00103775 0)
(-0.0181334 0.000945589 0)
(-0.0186341 0.000848048 0)
(-0.0190789 0.000745691 0)
(-0.0194655 0.00063909 0)
(-0.0197915 0.000528824 0)
(-0.0200552 0.000415482 0)
(-0.0202549 0.000299659 0)
(-0.0203895 0.00018196 0)
(-0.0204582 6.30006e-05 0)
(-0.0204604 -5.65955e-05 0)
(-0.0203959 -0.000176194 0)
(-0.020265 -0.000295151 0)
(-0.0200682 -0.000412812 0)
(-0.0198065 -0.000528515 0)
(-0.019481 -0.000641591 0)
(-0.0190936 -0.000751363 0)
(-0.0186462 -0.000857148 0)
(-0.0181413 -0.000958262 0)
(-0.0175816 -0.00105402 0)
(-0.0169704 -0.00114373 0)
(-0.016311 -0.00122673 0)
(-0.0156076 -0.00130233 0)
(-0.0148643 -0.00136988 0)
(-0.0140857 -0.00142875 0)
(-0.0132768 -0.00147829 0)
(-0.0124429 -0.00151793 0)
(-0.0115896 -0.00154709 0)
(-0.0107227 -0.00156526 0)
(-0.00984838 -0.00157195 0)
(-0.00897302 -0.00156673 0)
(-0.00810316 -0.00154925 0)
(-0.00724553 -0.00151921 0)
(-0.00640695 -0.00147641 0)
(-0.0055943 -0.00142075 0)
(-0.00481445 -0.00135226 0)
(-0.00407417 -0.00127113 0)
(-0.00338007 -0.00117772 0)
(-0.00273843 -0.00107265 0)
(-0.00215513 -0.000956834 0)
(-0.00163541 -0.000831579 0)
(-0.00118371 -0.00069871 0)
(-0.000803372 -0.00056073 0)
(-0.000496302 -0.000421046 0)
(-0.000262551 -0.00028427 0)
(-9.97849e-05 -0.000156614 0)
(-2.63477e-06 -4.64045e-05 0)
(3.8033e-05 3.53026e-05 0)
(3.61305e-05 7.40188e-05 0)
(1.02625e-05 5.12632e-05 0)
(-5.64302e-07 -5.72731e-05 0)
(-1.14332e-05 -5.70999e-05 0)
(-6.48071e-05 3.2884e-05 0)
(-0.000180811 0.00018483 0)
(-0.000374422 0.000377066 0)
(-0.000655176 0.000593013 0)
(-0.00102831 0.000820132 0)
(-0.00149556 0.00104903 0)
(-0.00205591 0.00127275 0)
(-0.00270614 0.00148617 0)
(-0.0034414 0.0016856 0)
(-0.00425556 0.00186841 0)
(-0.00514155 0.00203277 0)
(-0.00609164 0.00217751 0)
(-0.00709761 0.00230191 0)
(-0.00815098 0.00240563 0)
(-0.0092431 0.0024886 0)
(-0.0103653 0.00255099 0)
(-0.0115089 0.00259312 0)
(-0.0126653 0.00261547 0)
(-0.0138263 0.00261859 0)
(-0.0149836 0.00260313 0)
(-0.0161295 0.00256981 0)
(-0.0172563 0.0025194 0)
(-0.0183568 0.00245269 0)
(-0.019424 0.00237052 0)
(-0.0204513 0.00227375 0)
(-0.0214327 0.00216325 0)
(-0.0223621 0.00203992 0)
(-0.0232343 0.00190467 0)
(-0.0240441 0.00175843 0)
(-0.0247869 0.00160213 0)
(-0.0254586 0.00143671 0)
(-0.0260553 0.00126314 0)
(-0.0265737 0.00108238 0)
(-0.0270108 0.000895422 0)
(-0.0273642 0.000703266 0)
(-0.0276317 0.000506923 0)
(-0.0278118 0.000307421 0)
(-0.0279034 0.000105806 0)
(-0.0279057 -9.6863e-05 0)
(-0.0278187 -0.000299509 0)
(-0.0276425 -0.000501039 0)
(-0.0273779 -0.000700346 0)
(-0.0270263 -0.000896309 0)
(-0.0265892 -0.00108779 0)
(-0.0260691 -0.00127366 0)
(-0.0254685 -0.00145275 0)
(-0.0247909 -0.00162391 0)
(-0.0240399 -0.001786 0)
(-0.0232197 -0.00193785 0)
(-0.0223351 -0.00207833 0)
(-0.0213914 -0.00220632 0)
(-0.0203941 -0.00232072 0)
(-0.0193496 -0.00242044 0)
(-0.0182643 -0.00250447 0)
(-0.0171452 -0.00257182 0)
(-0.0159999 -0.00262155 0)
(-0.0148361 -0.00265281 0)
(-0.0136619 -0.00266481 0)
(-0.0124857 -0.00265687 0)
(-0.0113161 -0.00262842 0)
(-0.010162 -0.00257901 0)
(-0.00903238 -0.00250834 0)
(-0.00793612 -0.00241631 0)
(-0.00688221 -0.00230303 0)
(-0.00587943 -0.00216886 0)
(-0.00493628 -0.0020145 0)
(-0.00406085 -0.00184103 0)
(-0.00326061 -0.00165003 0)
(-0.00254222 -0.00144372 0)
(-0.00191124 -0.00122513 0)
(-0.00137185 -0.000998323 0)
(-0.000926425 -0.000768734 0)
(-0.000575092 -0.000543562 0)
(-0.000315155 -0.000332301 0)
(-0.000140427 -0.000147408 0)
(-4.05167e-05 -5.0995e-06 0)
(2.01293e-07 7.3713e-05 0)
(2.18971e-06 6.25006e-05 0)
(-1.33236e-05 -5.18267e-05 0)
(-6.56263e-05 -1.15998e-05 0)
(-0.000178076 0.000143216 0)
(-0.00037103 0.000378093 0)
(-0.000659704 0.000665586 0)
(-0.0010537 0.000984245 0)
(-0.00155819 0.00131749 0)
(-0.00217464 0.00165264 0)
(-0.00290156 0.00198008 0)
(-0.00373509 0.00229263 0)
(-0.00466945 0.00258495 0)
(-0.00569742 0.00285318 0)
(-0.00681069 0.00309461 0)
(-0.0080001 0.00330738 0)
(-0.00925591 0.00349033 0)
(-0.010568 0.00364287 0)
(-0.011926 0.00376479 0)
(-0.0133195 0.00385625 0)
(-0.014738 0.00391765 0)
(-0.0161713 0.00394962 0)
(-0.0176093 0.00395294 0)
(-0.0190419 0.00392852 0)
(-0.0204597 0.0038774 0)
(-0.0218534 0.00380067 0)
(-0.0232141 0.0036995 0)
(-0.0245334 0.00357513 0)
(-0.0258031 0.00342883 0)
(-0.0270157 0.00326189 0)
(-0.028164 0.00307565 0)
(-0.0292413 0.00287148 0)
(-0.0302415 0.00265076 0)
(-0.0311588 0.00241489 0)
(-0.0319881 0.0021653 0)
(-0.0327247 0.00190343 0)
(-0.0333645 0.00163076 0)
(-0.0339038 0.00134876 0)
(-0.0343397 0.00105894 0)
(-0.0346695 0.000762845 0)
(-0.0348914 0.000462016 0)
(-0.0350039 0.000158034 0)
(-0.0350063 -0.000147502 0)
(-0.0348982 -0.000452965 0)
(-0.0346802 -0.000756711 0)
(-0.0343531 -0.00105707 0)
(-0.0339184 -0.00135235 0)
(-0.0333785 -0.00164086 0)
(-0.0327359 -0.00192087 0)
(-0.0319942 -0.00219065 0)
(-0.0311574 -0.00244848 0)
(-0.0302299 -0.00269263 0)
(-0.0292172 -0.00292138 0)
(-0.0281249 -0.00313302 0)
(-0.0269595 -0.0033259 0)
(-0.025728 -0.00349836 0)
(-0.0244379 -0.00364882 0)
(-0.0230973 -0.00377576 0)
(-0.0217147 -0.00387771 0)
(-0.0202992 -0.00395333 0)
(-0.0188604 -0.00400134 0)
(-0.0174079 -0.00402063 0)
(-0.0159522 -0.00401022 0)
(-0.0145035 -0.00396928 0)
(-0.0130727 -0.00389723 0)
(-0.0116705 -0.00379368 0)
(-0.0103077 -0.00365854 0)
(-0.00899509 -0.00349206 0)
(-0.00774311 -0.00329486 0)
(-0.00656194 -0.00306805 0)
(-0.00546117 -0.00281333 0)
(-0.00444967 -0.0025331 0)
(-0.00353529 -0.00223067 0)
(-0.00272463 -0.00191045 0)
(-0.00202264 -0.0015783 0)
(-0.00143229 -0.00124187 0)
(-0.000954024 -0.000911095 0)
(-0.000585262 -0.000598833 0)
(-0.000319732 -0.000321595 0)
(-0.0001468 -0.000100437 0)
(-5.04097e-05 3.80283e-05 0)
(-9.6687e-06 6.06588e-05 0)
(-2.83459e-05 -2.98273e-05 0)
(-0.000128621 7.79046e-05 0)
(-0.000308284 0.000320549 0)
(-0.000587106 0.000658506 0)
(-0.000979667 0.00105957 0)
(-0.00149487 0.001498 0)
(-0.00213718 0.0019535 0)
(-0.00290739 0.00241024 0)
(-0.00380326 0.00285598 0)
(-0.00482009 0.00328137 0)
(-0.00595118 0.00367937 0)
(-0.00718829 0.00404479 0)
(-0.00852194 0.00437385 0)
(-0.0099417 0.00466397 0)
(-0.0114365 0.00491345 0)
(-0.0129948 0.00512135 0)
(-0.0146048 0.00528729 0)
(-0.0162544 0.00541136 0)
(-0.0179318 0.00549405 0)
(-0.019625 0.0055361 0)
(-0.0213223 0.00553855 0)
(-0.0230123 0.00550258 0)
(-0.0246839 0.00542957 0)
(-0.0263264 0.005321 0)
(-0.0279294 0.00517846 0)
(-0.029483 0.00500362 0)
(-0.0309779 0.00479824 0)
(-0.0324052 0.0045641 0)
(-0.0337565 0.00430305 0)
(-0.0350241 0.00401698 0)
(-0.0362007 0.00370781 0)
(-0.0372796 0.0033775 0)
(-0.0382549 0.00302805 0)
(-0.039121 0.00266146 0)
(-0.0398731 0.0022798 0)
(-0.040507 0.00188513 0)
(-0.0410191 0.00147957 0)
(-0.0414065 0.00106526 0)
(-0.041667 0.000644375 0)
(-0.0417988 0.000219126 0)
(-0.0418011 -0.000208251 0)
(-0.0416737 -0.000635483 0)
(-0.0414169 -0.00106027 0)
(-0.0410319 -0.00148028 0)
(-0.0405205 -0.00189316 0)
(-0.0398853 -0.00229654 0)
(-0.0391296 -0.00268801 0)
(-0.0382573 -0.00306518 0)
(-0.0372731 -0.00342564 0)
(-0.0361824 -0.00376699 0)
(-0.0349913 -0.00408686 0)
(-0.0337067 -0.00438288 0)
(-0.0323359 -0.00465274 0)
(-0.0308871 -0.00489419 0)
(-0.0293691 -0.00510503 0)
(-0.0277913 -0.00528318 0)
(-0.0261636 -0.00542664 0)
(-0.0244966 -0.00553356 0)
(-0.0228012 -0.00560224 0)
(-0.0210889 -0.00563116 0)
(-0.0193715 -0.005619 0)
(-0.017661 -0.00556472 0)
(-0.0159698 -0.00546755 0)
(-0.0143103 -0.00532704 0)
(-0.0126949 -0.00514316 0)
(-0.0111359 -0.00491632 0)
(-0.00964533 -0.00464749 0)
(-0.00823476 -0.00433829 0)
(-0.00691516 -0.00399112 0)
(-0.0056966 -0.00360933 0)
(-0.00458809 -0.00319744 0)
(-0.00359718 -0.0027614 0)
(-0.0027297 -0.00230897 0)
(-0.00198934 -0.00185007 0)
(-0.00137718 -0.00139743 0)
(-0.00089122 -0.000967129 0)
(-0.000525709 -0.00057947 0)
(-0.000270539 -0.000259805 0)
(-0.000110094 -3.95218e-05 0)
(-2.38606e-05 4.31421e-05 0)
(-4.46074e-05 1.01266e-05 0)
(-0.000196472 0.000215215 0)
(-0.000448109 0.000570528 0)
(-0.000818301 0.00103284 0)
(-0.00132044 0.00156618 0)
(-0.00196217 0.00214124 0)
(-0.00274678 0.00273445 0)
(-0.00367397 0.00332705 0)
(-0.00474048 0.00390431 0)
(-0.00594059 0.00445479 0)
(-0.00726661 0.00496973 0)
(-0.0087092 0.00544251 0)
(-0.0102578 0.00586829 0)
(-0.0119008 0.00624366 0)
(-0.0136259 0.00656632 0)
(-0.0154203 0.00683493 0)
(-0.0172708 0.0070489 0)
(-0.0191641 0.00720823 0)
(-0.0210868 0.00731344 0)
(-0.0230257 0.00736543 0)
(-0.0249677 0.00736546 0)
(-0.0268999 0.00731501 0)
(-0.02881 0.00721583 0)
(-0.0306858 0.00706982 0)
(-0.0325157 0.00687902 0)
(-0.0342886 0.0066456 0)
(-0.0359939 0.00637184 0)
(-0.0376217 0.00606008 0)
(-0.0391624 0.00571276 0)
(-0.0406074 0.00533234 0)
(-0.0419483 0.00492137 0)
(-0.0431777 0.00448242 0)
(-0.0442888 0.00401814 0)
(-0.0452754 0.0035312 0)
(-0.046132 0.0030243 0)
(-0.0468538 0.00250021 0)
(-0.0474369 0.00196173 0)
(-0.0478778 0.0014117 0)
(-0.0481741 0.000853 0)
(-0.048324 0.000288561 0)
(-0.0483263 -0.000278648 0)
(-0.0481809 -0.000845617 0)
(-0.0478882 -0.0014093 0)
(-0.0474496 -0.0019666 0)
(-0.046867 -0.00251442 0)
(-0.0461435 -0.00304961 0)
(-0.0452827 -0.00356901 0)
(-0.044289 -0.00406944 0)
(-0.0431679 -0.00454774 0)
(-0.0419255 -0.00500075 0)
(-0.0405685 -0.00542533 0)
(-0.0391047 -0.0058184 0)
(-0.0375425 -0.00617691 0)
(-0.0358911 -0.0064979 0)
(-0.0341604 -0.00677854 0)
(-0.0323609 -0.00701607 0)
(-0.0305039 -0.00720792 0)
(-0.0286011 -0.00735168 0)
(-0.0266649 -0.00744516 0)
(-0.024708 -0.00748642 0)
(-0.0227438 -0.00747381 0)
(-0.0207858 -0.00740599 0)
(-0.0188476 -0.00728204 0)
(-0.0169432 -0.00710147 0)
(-0.0150864 -0.00686432 0)
(-0.013291 -0.00657122 0)
(-0.0115702 -0.00622353 0)
(-0.00993697 -0.00582344 0)
(-0.00840353 -0.00537415 0)
(-0.0069811 -0.00488003 0)
(-0.00567977 -0.0043469 0)
(-0.00450814 -0.00378231 0)
(-0.00347298 -0.00319594 0)
(-0.00257893 -0.0026 0)
(-0.001828 -0.00200986 0)
(-0.00121913 -0.00144466 0)
(-0.000747617 -0.000928046 0)
(-0.000404419 -0.000489058 0)
(-0.000174907 -0.000162898 0)
(-3.93608e-05 8.475e-06 0)
(-6.14241e-05 6.86638e-05 0)
(-0.000266519 0.000402301 0)
(-0.000592522 0.000896348 0)
(-0.00105708 0.00150514 0)
(-0.00167209 0.00218989 0)
(-0.00244357 0.0029184 0)
(-0.00337326 0.0036643 0)
(-0.00445946 0.00440627 0)
(-0.00569761 0.00512729 0)
(-0.0070808 0.00581393 0)
(-0.00860019 0.00645575 0)
(-0.0102453 0.00704476 0)
(-0.0120045 0.00757503 0)
(-0.0138651 0.00804227 0)
(-0.0158135 0.00844357 0)
(-0.0178357 0.00877716 0)
(-0.0199175 0.00904218 0)
(-0.0220441 0.00923855 0)
(-0.0242011 0.0093668 0)
(-0.026374 0.00942797 0)
(-0.0285483 0.00942356 0)
(-0.03071 0.00935537 0)
(-0.0328456 0.00922553 0)
(-0.0349416 0.00903638 0)
(-0.0369854 0.00879046 0)
(-0.0389648 0.0084905 0)
(-0.0408679 0.00813932 0)
(-0.042684 0.00773989 0)
(-0.0444024 0.00729526 0)
(-0.0460136 0.00680858 0)
(-0.0475086 0.00628306 0)
(-0.0488789 0.00572197 0)
(-0.0501172 0.00512866 0)
(-0.0512165 0.00450653 0)
(-0.0521708 0.00385903 0)
(-0.0529749 0.00318968 0)
(-0.0536244 0.00250205 0)
(-0.0541155 0.00179975 0)
(-0.0544455 0.00108647 0)
(-0.0546123 0.000365925 0)
(-0.0546149 -0.000358095 0)
(-0.0544529 -0.00108176 0)
(-0.0541269 -0.00180119 0)
(-0.0536384 -0.00251245 0)
(-0.0529896 -0.0032116 0)
(-0.0521838 -0.00389463 0)
(-0.051225 -0.00455754 0)
(-0.0501182 -0.0051963 0)
(-0.0488693 -0.00580689 0)
(-0.047485 -0.00638531 0)
(-0.0459729 -0.0069276 0)
(-0.0443415 -0.00742985 0)
(-0.0426 -0.00788823 0)
(-0.0407586 -0.00829902 0)
(-0.038828 -0.00865861 0)
(-0.0368201 -0.00896359 0)
(-0.0347469 -0.00921072 0)
(-0.0326216 -0.00939699 0)
(-0.0304576 -0.00951969 0)
(-0.028269 -0.00957642 0)
(-0.0260704 -0.00956514 0)
(-0.0238764 -0.00948426 0)
(-0.0217023 -0.00933268 0)
(-0.0195631 -0.00910987 0)
(-0.0174739 -0.00881595 0)
(-0.0154498 -0.00845183 0)
(-0.0135055 -0.00801928 0)
(-0.0116549 -0.00752112 0)
(-0.00991142 -0.00696137 0)
(-0.00828756 -0.00634548 0)
(-0.00679445 -0.00568059 0)
(-0.0054418 -0.00497588 0)
(-0.0042375 -0.00424289 0)
(-0.00318729 -0.00349605 0)
(-0.00229438 -0.00275319 0)
(-0.00155903 -0.00203619 0)
(-0.000977882 -0.00137165 0)
(-0.000543372 -0.000791612 0)
(-0.000242163 -0.000334234 0)
(-5.5478e-05 -4.40407e-05 0)
(-7.83529e-05 0.000145909 0)
(-0.000337019 0.000639878 0)
(-0.000738157 0.00129945 0)
(-0.0012983 0.00207746 0)
(-0.00202771 0.00293312 0)
(-0.00293053 0.00383195 0)
(-0.00400673 0.00474531 0)
(-0.00525294 0.00564966 0)
(-0.00666308 0.00652595 0)
(-0.00822889 0.00735893 0)
(-0.00994024 0.0081366 0)
(-0.0117855 0.00884966 0)
(-0.0137518 0.00949108 0)
(-0.0158252 0.0100557 0)
(-0.0179912 0.0105401 0)
(-0.0202347 0.010942 0)
(-0.0225401 0.0112602 0)
(-0.0248917 0.0114946 0)
(-0.0272739 0.0116457 0)
(-0.0296709 0.0117148 0)
(-0.0320673 0.0117034 0)
(-0.034448 0.0116139 0)
(-0.0367982 0.0114487 0)
(-0.0391035 0.0112106 0)
(-0.0413502 0.0109028 0)
(-0.043525 0.0105284 0)
(-0.0456153 0.010091 0)
(-0.0476092 0.00959415 0)
(-0.0494955 0.00904163 0)
(-0.0512635 0.00843727 0)
(-0.0529036 0.00778502 0)
(-0.0544067 0.00708892 0)
(-0.0557647 0.00635309 0)
(-0.0569701 0.00558173 0)
(-0.0580165 0.00477909 0)
(-0.0588981 0.00394951 0)
(-0.0596101 0.0030974 0)
(-0.0601486 0.00222723 0)
(-0.0605105 0.00134354 0)
(-0.0606936 0.000450941 0)
(-0.0606967 -0.000445903 0)
(-0.0605195 -0.00134226 0)
(-0.0601626 -0.00223334 0)
(-0.0596276 -0.0031143 0)
(-0.058917 -0.00398027 0)
(-0.0580342 -0.00482632 0)
(-0.0569838 -0.00564751 0)
(-0.055771 -0.00643889 0)
(-0.0544023 -0.00719553 0)
(-0.0528848 -0.0079125 0)
(-0.0512269 -0.00858494 0)
(-0.0494378 -0.00920805 0)
(-0.0475273 -0.00977715 0)
(-0.0455065 -0.0102877 0)
(-0.0433872 -0.0107352 0)
(-0.0411818 -0.0111157 0)
(-0.0389037 -0.011425 0)
(-0.0365669 -0.0116596 0)
(-0.0341861 -0.0118162 0)
(-0.0317764 -0.0118919 0)
(-0.0293533 -0.0118843 0)
(-0.0269331 -0.0117915 0)
(-0.0245317 -0.0116121 0)
(-0.0221658 -0.0113457 0)
(-0.0198515 -0.0109925 0)
(-0.017605 -0.0105536 0)
(-0.0154421 -0.0100313 0)
(-0.0133782 -0.00942892 0)
(-0.0114278 -0.00875147 0)
(-0.00960439 -0.00800542 0)
(-0.00792038 -0.00719925 0)
(-0.00638665 -0.00634368 0)
(-0.00501233 -0.00545208 0)
(-0.00380449 -0.00454093 0)
(-0.00276777 -0.0036303 0)
(-0.00190394 -0.0027445 0)
(-0.00121132 -0.00191262 0)
(-0.000683998 -0.00116914 0)
(-0.000310094 -0.000554402 0)
(-7.17609e-05 -0.000114592 0)
(-9.51178e-05 0.000241673 0)
(-0.000406878 0.000927827 0)
(-0.000882853 0.00178006 0)
(-0.00153856 0.00275043 0)
(-0.00238262 0.00379678 0)
(-0.00341719 0.00488296 0)
(-0.00464028 0.00597845 0)
(-0.00604666 0.0070579 0)
(-0.0076286 0.0081005 0)
(-0.00937629 0.00908938 0)
(-0.0112782 0.0100111 0)
(-0.0133214 0.0108552 0)
(-0.0154919 0.0116136 0)
(-0.0177745 0.0122803 0)
(-0.0201535 0.0128513 0)
(-0.0226128 0.0133239 0)
(-0.0251357 0.0136968 0)
(-0.0277054 0.0139695 0)
(-0.0303052 0.0141427 0)
(-0.0329183 0.0142178 0)
(-0.0355284 0.0141967 0)
(-0.0381192 0.014082 0)
(-0.0406749 0.0138765 0)
(-0.0431803 0.0135836 0)
(-0.0456206 0.0132069 0)
(-0.0479817 0.0127504 0)
(-0.0502502 0.0122182 0)
(-0.0524132 0.0116145 0)
(-0.0544588 0.0109438 0)
(-0.0563757 0.0102108 0)
(-0.0581534 0.00942018 0)
(-0.0597824 0.00857681 0)
(-0.0612539 0.00768562 0)
(-0.0625599 0.00675168 0)
(-0.0636935 0.0057801 0)
(-0.0646486 0.00477612 0)
(-0.06542 0.00374504 0)
(-0.0660036 0.00269225 0)
(-0.0663959 0.00162321 0)
(-0.0665948 0.000543486 0)
(-0.0665988 -0.000541307 0)
(-0.0664078 -0.00162547 0)
(-0.0660222 -0.00270324 0)
(-0.0654438 -0.0037688 0)
(-0.0646753 -0.00481626 0)
(-0.0637204 -0.00583972 0)
(-0.0625838 -0.00683325 0)
(-0.0612713 -0.00779088 0)
(-0.0597896 -0.0087067 0)
(-0.0581466 -0.0095748 0)
(-0.0563509 -0.0103894 0)
(-0.0544125 -0.0111446 0)
(-0.0523419 -0.011835 0)
(-0.0501509 -0.012455 0)
(-0.047852 -0.0129994 0)
(-0.0454586 -0.0134632 0)
(-0.042985 -0.0138418 0)
(-0.040446 -0.0141308 0)
(-0.0378572 -0.0143263 0)
(-0.035235 -0.0144249 0)
(-0.0325958 -0.0144237 0)
(-0.0299569 -0.0143206 0)
(-0.0273356 -0.0141141 0)
(-0.0247492 -0.0138035 0)
(-0.0222154 -0.0133892 0)
(-0.0197513 -0.0128726 0)
(-0.017374 -0.0122564 0)
(-0.0151 -0.0115447 0)
(-0.0129448 -0.0107431 0)
(-0.0109234 -0.00985937 0)
(-0.00904922 -0.00890309 0)
(-0.00733454 -0.00788653 0)
(-0.00578986 -0.00682475 0)
(-0.00442371 -0.0057361 0)
(-0.00324232 -0.00464269 0)
(-0.00224921 -0.0035709 0)
(-0.00144451 -0.00255192 0)
(-0.000824112 -0.00162212 0)
(-0.00037759 -0.000823438 0)
(-8.79285e-05 -0.000203045 0)
(-0.000111559 0.00035558 0)
(-0.000475453 0.00126551 0)
(-0.0010253 0.00233763 0)
(-0.00177576 0.00352371 0)
(-0.00273384 0.00478077 0)
(-0.00389969 0.00607142 0)
(-0.00526926 0.00736375 0)
(-0.00683538 0.00863089 0)
(-0.00858847 0.00985054 0)
(-0.0105171 0.0110045 0)
(-0.0126082 0.012078 0)
(-0.0148475 0.0130595 0)
(-0.0172196 0.0139399 0)
(-0.0197082 0.0147128 0)
(-0.0222965 0.0153733 0)
(-0.0249672 0.0159185 0)
(-0.0277025 0.0163466 0)
(-0.0304847 0.0166574 0)
(-0.033296 0.0168515 0)
(-0.0361188 0.0169303 0)
(-0.0389355 0.0168962 0)
(-0.041729 0.016752 0)
(-0.0444828 0.0165011 0)
(-0.0471806 0.0161474 0)
(-0.0498068 0.0156951 0)
(-0.0523465 0.0151488 0)
(-0.0547856 0.0145132 0)
(-0.0571104 0.0137934 0)
(-0.0593082 0.0129947 0)
(-0.0613672 0.0121225 0)
(-0.0632763 0.0111823 0)
(-0.0650253 0.0101799 0)
(-0.0666049 0.00912115 0)
(-0.0680069 0.00801192 0)
(-0.0692237 0.0068583 0)
(-0.070249 0.00566646 0)
(-0.0710773 0.00444266 0)
(-0.071704 0.00319326 0)
(-0.0721258 0.00192472 0)
(-0.0723402 0.000643594 0)
(-0.0723457 -0.000643483 0)
(-0.0721421 -0.00192979 0)
(-0.0717299 -0.00320852 0)
(-0.071111 -0.00447281 0)
(-0.0702882 -0.00571574 0)
(-0.0692654 -0.00693034 0)
(-0.0680476 -0.0081096 0)
(-0.0666408 -0.00924653 0)
(-0.0650522 -0.0103341 0)
(-0.0632901 -0.0113655 0)
(-0.0613636 -0.0123338 0)
(-0.0592831 -0.0132321 0)
(-0.05706 -0.0140541 0)
(-0.0547065 -0.0147932 0)
(-0.0522359 -0.0154432 0)
(-0.0496624 -0.0159985 0)
(-0.0470009 -0.0164534 0)
(-0.0442673 -0.016803 0)
(-0.0414781 -0.0170426 0)
(-0.0386503 -0.0171684 0)
(-0.0358017 -0.0171769 0)
(-0.0329503 -0.0170658 0)
(-0.0301145 -0.0168332 0)
(-0.0273129 -0.0164785 0)
(-0.0245639 -0.0160021 0)
(-0.021886 -0.0154056 0)
(-0.0192973 -0.0146922 0)
(-0.0168155 -0.0138666 0)
(-0.0144574 -0.0129353 0)
(-0.012239 -0.0119068 0)
(-0.0101754 -0.010792 0)
(-0.00828009 -0.00960472 0)
(-0.00656504 -0.00836141 0)
(-0.00504045 -0.00708216 0)
(-0.00371429 -0.00579086 0)
(-0.00259191 -0.00451568 0)
(-0.00167537 -0.00328951 0)
(-0.000962403 -0.00215023 0)
(-0.000444001 -0.00114086 0)
(-0.000103818 -0.000309077 0)
(-0.000127593 0.000487161 0)
(-0.000542409 0.00165199 0)
(-0.00116477 0.00297108 0)
(-0.00200867 0.00439631 0)
(-0.00307959 0.00588423 0)
(-0.00437569 0.00739665 0)
(-0.00589082 0.00890057 0)
(-0.00761576 0.0103679 0)
(-0.00953905 0.0117753 0)
(-0.0116475 0.0131031 0)
(-0.0139264 0.0143357 0)
(-0.01636 0.0154606 0)
(-0.0189315 0.0164678 0)
(-0.0216236 0.0173502 0)
(-0.0244181 0.0181026 0)
(-0.0272965 0.0187215 0)
(-0.0302402 0.0192053 0)
(-0.0332304 0.0195533 0)
(-0.0362482 0.0197665 0)
(-0.0392751 0.0198465 0)
(-0.0422927 0.0197958 0)
(-0.045283 0.0196177 0)
(-0.0482286 0.0193161 0)
(-0.0511124 0.0188955 0)
(-0.0539181 0.0183607 0)
(-0.0566301 0.0177169 0)
(-0.0592333 0.0169696 0)
(-0.0617137 0.0161247 0)
(-0.0640579 0.0151883 0)
(-0.0662533 0.0141667 0)
(-0.0682884 0.0130662 0)
(-0.0701526 0.0118935 0)
(-0.0718361 0.0106553 0)
(-0.0733301 0.00935866 0)
(-0.0746269 0.00801049 0)
(-0.0757196 0.00661797 0)
(-0.0766027 0.00518836 0)
(-0.0772712 0.00372906 0)
(-0.0777217 0.00224755 0)
(-0.0779515 0.000751449 0)
(-0.0779592 -0.000751546 0)
(-0.0777443 -0.00225363 0)
(-0.0773075 -0.00374692 0)
(-0.0766507 -0.00522345 0)
(-0.0757768 -0.00667518 0)
(-0.0746899 -0.00809404 0)
(-0.0733952 -0.00947192 0)
(-0.071899 -0.0108007 0)
(-0.0702088 -0.0120723 0)
(-0.0683332 -0.0132787 0)
(-0.066282 -0.0144119 0)
(-0.0640658 -0.0154641 0)
(-0.0616965 -0.0164278 0)
(-0.0591871 -0.0172954 0)
(-0.0565514 -0.01806 0)
(-0.0538043 -0.0187147 0)
(-0.0509615 -0.0192533 0)
(-0.0480395 -0.0196699 0)
(-0.0450558 -0.0199592 0)
(-0.0420283 -0.0201168 0)
(-0.0389755 -0.0201387 0)
(-0.0359165 -0.0200222 0)
(-0.0328707 -0.0197652 0)
(-0.0298576 -0.019367 0)
(-0.0268968 -0.018828 0)
(-0.0240079 -0.0181501 0)
(-0.0212101 -0.0173368 0)
(-0.0185222 -0.0163933 0)
(-0.0159625 -0.0153268 0)
(-0.0135482 -0.014147 0)
(-0.0112957 -0.0128658 0)
(-0.00922003 -0.0114982 0)
(-0.00733487 -0.0100621 0)
(-0.00565208 -0.00857911 0)
(-0.00418148 -0.00707467 0)
(-0.00293036 -0.00557847 0)
(-0.00190274 -0.0041248 0)
(-0.00109818 -0.00275268 0)
(-0.000509001 -0.00150588 0)
(-0.000119349 -0.000432273 0)
(-0.000143191 0.000635912 0)
(-0.00060762 0.00208617 0)
(-0.00130098 0.00367908 0)
(-0.00223675 0.00536687 0)
(-0.003419 0.00710591 0)
(-0.00484396 0.00885749 0)
(-0.00650338 0.0105878 0)
(-0.00838595 0.012268 0)
(-0.0104782 0.0138736 0)
(-0.0127652 0.0153841 0)
(-0.0152305 0.016783 0)
(-0.0178569 0.0180568 0)
(-0.0206261 0.0191951 0)
(-0.0235193 0.0201902 0)
(-0.0265174 0.0210363 0)
(-0.0296007 0.0217298 0)
(-0.0327494 0.0222689 0)
(-0.0359437 0.0226531 0)
(-0.039164 0.0228833 0)
(-0.0423906 0.0229613 0)
(-0.0456044 0.0228902 0)
(-0.0487866 0.0226736 0)
(-0.0519188 0.0223159 0)
(-0.0549834 0.0218221 0)
(-0.0579633 0.0211979 0)
(-0.0608421 0.020449 0)
(-0.0636043 0.0195818 0)
(-0.0662352 0.018603 0)
(-0.0687207 0.0175195 0)
(-0.0710478 0.0163384 0)
(-0.0732046 0.0150671 0)
(-0.0751799 0.0137133 0)
(-0.0769636 0.0122845 0)
(-0.0785465 0.0107887 0)
(-0.0799205 0.00923403 0)
(-0.0810786 0.00762856 0)
(-0.0820148 0.00598064 0)
(-0.0827241 0.00429874 0)
(-0.0832029 0.00259141 0)
(-0.0834482 0.000867379 0)
(-0.0834587 -0.000864553 0)
(-0.0832338 -0.00259546 0)
(-0.0827743 -0.00431631 0)
(-0.082082 -0.00601801 0)
(-0.08116 -0.00769135 0)
(-0.0800125 -0.00932711 0)
(-0.0786448 -0.010916 0)
(-0.0770635 -0.0124488 0)
(-0.0752764 -0.0139162 0)
(-0.0732924 -0.015309 0)
(-0.0711215 -0.0166182 0)
(-0.068775 -0.0178349 0)
(-0.0662651 -0.0189503 0)
(-0.0636054 -0.019956 0)
(-0.0608101 -0.0208439 0)
(-0.0578949 -0.0216062 0)
(-0.0548761 -0.0222359 0)
(-0.051771 -0.0227262 0)
(-0.0485977 -0.0230711 0)
(-0.045375 -0.0232654 0)
(-0.0421223 -0.0233049 0)
(-0.0388595 -0.0231861 0)
(-0.035607 -0.0229069 0)
(-0.0323854 -0.0224662 0)
(-0.0292153 -0.0218646 0)
(-0.0261174 -0.0211041 0)
(-0.0231121 -0.0201885 0)
(-0.0202195 -0.0191235 0)
(-0.017459 -0.0179171 0)
(-0.0148493 -0.0165797 0)
(-0.0124084 -0.0151242 0)
(-0.0101528 -0.0135668 0)
(-0.0080979 -0.0119266 0)
(-0.00625735 -0.0102266 0)
(-0.0046429 -0.00849359 0)
(-0.00326384 -0.00675852 0)
(-0.00212616 -0.00505683 0)
(-0.0012312 -0.00342843 0)
(-0.000572486 -0.00191759 0)
(-0.000134497 -0.000572186 0)
(-0.000158357 0.000801333 0)
(-0.000671099 0.00256692 0)
(-0.0014339 0.00446021 0)
(-0.00245987 0.00643385 0)
(-0.00375181 0.00844428 0)
(-0.00530407 0.0104525 0)
(-0.00710633 0.0124243 0)
(-0.00914518 0.0143299 0)
(-0.0114052 0.0161442 0)
(-0.0138694 0.0178461 0)
(-0.0165198 0.0194182 0)
(-0.0193374 0.0208465 0)
(-0.0223025 0.02212 0)
(-0.0253951 0.0232305 0)
(-0.0285947 0.0241719 0)
(-0.0318804 0.0249406 0)
(-0.0352314 0.0255346 0)
(-0.0386269 0.0259534 0)
(-0.0420462 0.0261981 0)
(-0.0454689 0.026271 0)
(-0.0488751 0.0261753 0)
(-0.052245 0.0259152 0)
(-0.0555597 0.0254958 0)
(-0.0588007 0.0249226 0)
(-0.0619503 0.0242019 0)
(-0.0649916 0.0233404 0)
(-0.0679084 0.0223451 0)
(-0.0706853 0.0212237 0)
(-0.0733081 0.0199838 0)
(-0.0757631 0.0186337 0)
(-0.0780379 0.0171815 0)
(-0.080121 0.0156359 0)
(-0.0820018 0.0140056 0)
(-0.083671 0.0122995 0)
(-0.0851201 0.0105268 0)
(-0.0863418 0.00869658 0)
(-0.0873299 0.00681837 0)
(-0.0880794 0.00490169 0)
(-0.0885861 0.00295624 0)
(-0.0888474 0.000991851 0)
(-0.0888615 -0.000981503 0)
(-0.088628 -0.00295374 0)
(-0.0881476 -0.00491466 0)
(-0.0874221 -0.00685396 0)
(-0.0864547 -0.00876127 0)
(-0.0852497 -0.0106261 0)
(-0.0838125 -0.0124381 0)
(-0.0821501 -0.0141867 0)