/*--------------------------------*- C++ -*----------------------------------*\
| =========                 |                                                 |
| \\      /  F ield         | OpenFOAM: The Open Source CFD Toolbox           |
|  \\    /   O peration     | Version:  4.1                                   |
|   \\  /    A nd           | Web:      www.OpenFOAM.org                      |
|    \\/     M anipulation  |                                                 |
\*---------------------------------------------------------------------------*/
FoamFile
{
    version     2.0;
    format      ascii;
    class       volVectorField;
    location    "2.5";
    object      U;
}
// * * * * * * * * * * * * * * * * * * * * * * * * * * * * * * * * * * * * * //

dimensions      [0 1 -1 0 0 0 0];

internalField   nonuniform List<vector> 
10000
(
(3.3271e-06 -3.32616e-06 0)
(1.33273e-05 -5.21809e-06 0)
(2.26086e-05 -4.54718e-06 0)
(2.78871e-05 -2.00814e-06 0)
(2.69827e-05 1.59974e-06 0)
(1.86966e-05 5.72872e-06 0)
(2.5145e-06 1.00285e-05 0)
(-2.16247e-05 1.42826e-05 0)
(-5.34961e-05 1.83599e-05 0)
(-9.26996e-05 2.21841e-05 0)
(-0.000138733 2.57132e-05 0)
(-0.000191039 2.89278e-05 0)
(-0.000249037 3.18226e-05 0)
(-0.000312145 3.44013e-05 0)
(-0.000379788 3.66731e-05 0)
(-0.000451412 3.86508e-05 0)
(-0.000526485 4.03491e-05 0)
(-0.000604502 4.17835e-05 0)
(-0.000684985 4.29696e-05 0)
(-0.000767485 4.39229e-05 0)
(-0.000851578 4.46581e-05 0)
(-0.000936866 4.51891e-05 0)
(-0.00102298 4.55288e-05 0)
(-0.00110956 4.56889e-05 0)
(-0.00119629 4.568e-05 0)
(-0.00128284 4.55118e-05 0)
(-0.00136894 4.51925e-05 0)
(-0.00145429 4.47293e-05 0)
(-0.00153862 4.41285e-05 0)
(-0.00162169 4.33953e-05 0)
(-0.00170323 4.25341e-05 0)
(-0.00178302 4.15483e-05 0)
(-0.00186081 4.04409e-05 0)
(-0.00193638 3.92139e-05 0)
(-0.00200951 3.78693e-05 0)
(-0.00207996 3.64081e-05 0)
(-0.00214752 3.48317e-05 0)
(-0.00221197 3.31408e-05 0)
(-0.00227309 3.13363e-05 0)
(-0.00233068 2.94191e-05 0)
(-0.00238451 2.73904e-05 0)
(-0.00243439 2.52516e-05 0)
(-0.0024801 2.30044e-05 0)
(-0.00252144 2.06513e-05 0)
(-0.00255822 1.81952e-05 0)
(-0.00259025 1.56396e-05 0)
(-0.00261734 1.2989e-05 0)
(-0.00263932 1.02486e-05 0)
(-0.00265604 7.42471e-06 0)
(-0.00266734 4.52439e-06 0)
(-0.00267309 1.55588e-06 0)
(-0.00267316 -1.47158e-06 0)
(-0.00266747 -4.54765e-06 0)
(-0.00265593 -7.66091e-06 0)
(-0.00263849 -1.07989e-05 0)
(-0.00261511 -1.39481e-05 0)
(-0.00258579 -1.70939e-05 0)
(-0.00255055 -2.0221e-05 0)
(-0.00250945 -2.3313e-05 0)
(-0.00246257 -2.63528e-05 0)
(-0.00241002 -2.93226e-05 0)
(-0.00235195 -3.22042e-05 0)
(-0.00228856 -3.4979e-05 0)
(-0.00222005 -3.7628e-05 0)
(-0.00214669 -4.01323e-05 0)
(-0.00206876 -4.2473e-05 0)
(-0.0019866 -4.46316e-05 0)
(-0.00190055 -4.65898e-05 0)
(-0.00181101 -4.83304e-05 0)
(-0.0017184 -4.98367e-05 0)
(-0.00162319 -5.10932e-05 0)
(-0.00152584 -5.20855e-05 0)
(-0.00142688 -5.28008e-05 0)
(-0.00132682 -5.32277e-05 0)
(-0.00122622 -5.33564e-05 0)
(-0.00112564 -5.31792e-05 0)
(-0.00102566 -5.269e-05 0)
(-0.000926865 -5.1885e-05 0)
(-0.000829856 -5.07624e-05 0)
(-0.00073522 -4.93226e-05 0)
(-0.000643551 -4.75682e-05 0)
(-0.00055543 -4.55042e-05 0)
(-0.000471428 -4.31379e-05 0)
(-0.000392102 -4.04791e-05 0)
(-0.000317985 -3.75405e-05 0)
(-0.000249582 -3.43375e-05 0)
(-0.000187368 -3.08892e-05 0)
(-0.000131777 -2.72189e-05 0)
(-8.31912e-05 -2.33553e-05 0)
(-4.19359e-05 -1.93345e-05 0)
(-8.25831e-06 -1.52028e-05 0)
(1.76919e-05 -1.10213e-05 0)
(3.58936e-05 -6.87287e-06 0)
(4.64988e-05 -2.87244e-06 0)
(4.98983e-05 8.16824e-07 0)
(4.68143e-05 3.96046e-06 0)
(3.84295e-05 6.2212e-06 0)
(2.65437e-05 7.12891e-06 0)
(1.36886e-05 6.11534e-06 0)
(3.03125e-06 3.02723e-06 0)
(5.23897e-06 -1.33328e-05 0)
(2.13433e-05 -2.12765e-05 0)
(3.28825e-05 -1.63365e-05 0)
(3.29787e-05 -3.01917e-06 0)
(1.68413e-05 1.51996e-05 0)
(-1.83331e-05 3.59172e-05 0)
(-7.39051e-05 5.75351e-05 0)
(-0.000150201 7.90196e-05 0)
(-0.000246838 9.97178e-05 0)
(-0.000362962 0.00011923 0)
(-0.000497416 0.000137325 0)
(-0.000648857 0.000153882 0)
(-0.000815841 0.000168854 0)
(-0.00099688 0.000182242 0)
(-0.00119048 0.000194079 0)
(-0.00139518 0.000204419 0)
(-0.00160956 0.000213325 0)
(-0.00183224 0.00022087 0)
(-0.0020619 0.000227127 0)
(-0.00229732 0.000232171 0)
(-0.0025373 0.000236073 0)
(-0.00278072 0.000238901 0)
(-0.00302654 0.00024072 0)
(-0.00327375 0.000241589 0)
(-0.0035214 0.000241561 0)
(-0.00376859 0.000240685 0)
(-0.00401448 0.000239004 0)
(-0.00425825 0.000236554 0)
(-0.00449912 0.000233369 0)
(-0.00473634 0.000229476 0)
(-0.00496918 0.000224898 0)
(-0.00519696 0.000219655 0)
(-0.00541897 0.000213761 0)
(-0.00563456 0.00020723 0)
(-0.00584308 0.000200072 0)
(-0.00604387 0.000192295 0)
(-0.00623631 0.000183906 0)
(-0.00641976 0.000174911 0)
(-0.00659362 0.000165316 0)
(-0.00675727 0.000155127 0)
(-0.0069101 0.000144352 0)
(-0.00705154 0.000132998 0)
(-0.007181 0.000121079 0)
(-0.00729792 0.000108606 0)
(-0.00740175 9.5596e-05 0)
(-0.00749196 8.20701e-05 0)
(-0.00756806 6.80521e-05 0)
(-0.00762956 5.35705e-05 0)
(-0.00767602 3.86589e-05 0)
(-0.00770705 2.33556e-05 0)
(-0.00772228 7.70425e-06 0)
(-0.00772139 -8.24617e-06 0)
(-0.00770413 -2.44411e-05 0)
(-0.00767029 -4.08205e-05 0)
(-0.00761974 -5.73189e-05 0)
(-0.0075524 -7.38656e-05 0)
(-0.00746828 -9.03848e-05 0)
(-0.00736747 -0.000106796 0)
(-0.00725012 -0.000123014 0)
(-0.00711649 -0.00013895 0)
(-0.00696692 -0.000154512 0)
(-0.00680184 -0.000169606 0)
(-0.0066218 -0.000184135 0)
(-0.0064274 -0.000198001 0)
(-0.00621939 -0.000211106 0)
(-0.00599857 -0.000223353 0)
(-0.00576587 -0.000234646 0)
(-0.00552229 -0.000244892 0)
(-0.00526893 -0.000254 0)
(-0.00500699 -0.000261887 0)
(-0.00473772 -0.00026847 0)
(-0.00446247 -0.000273678 0)
(-0.00418265 -0.000277444 0)
(-0.00389973 -0.000279709 0)
(-0.00361524 -0.000280424 0)
(-0.00333075 -0.000279549 0)
(-0.00304786 -0.000277054 0)
(-0.00276819 -0.00027292 0)
(-0.00249339 -0.000267139 0)
(-0.00222508 -0.000259714 0)
(-0.00196489 -0.00025066 0)
(-0.00171443 -0.000240006 0)
(-0.00147526 -0.000227791 0)
(-0.0012489 -0.000214071 0)
(-0.00103678 -0.000198914 0)
(-0.000840268 -0.000182406 0)
(-0.00066063 -0.000164652 0)
(-0.000499003 -0.000145779 0)
(-0.000356372 -0.000125944 0)
(-0.000233544 -0.000105343 0)
(-0.000131097 -8.42239e-05 0)
(-4.93269e-05 -6.29068e-05 0)
(1.18262e-05 -4.18172e-05 0)
(5.28826e-05 -2.15296e-05 0)
(7.49586e-05 -2.83331e-06 0)
(7.9946e-05 1.318e-05 0)
(7.07364e-05 2.50083e-05 0)
(5.14609e-05 3.06487e-05 0)
(2.76708e-05 2.76389e-05 0)
(6.12018e-06 1.36712e-05 0)
(4.6022e-06 -2.26707e-05 0)
(1.65383e-05 -3.28525e-05 0)
(1.80968e-05 -1.78488e-05 0)
(8.61163e-07 1.35924e-05 0)
(-4.12601e-05 5.49343e-05 0)
(-0.000111962 0.000101547 0)
(-0.000213154 0.000150229 0)
(-0.000345394 0.000198818 0)
(-0.000508264 0.000245883 0)
(-0.000700652 0.000290502 0)
(-0.00092098 0.000332105 0)
(-0.00116736 0.000370368 0)
(-0.00143771 0.000405132 0)
(-0.00172985 0.000436357 0)
(-0.00204157 0.000464077 0)
(-0.00237066 0.000488382 0)
(-0.00271496 0.000509392 0)
(-0.00307235 0.00052725 0)
(-0.00344083 0.000542107 0)
(-0.00381843 0.00055412 0)
(-0.00420331 0.000563444 0)
(-0.00459371 0.000570226 0)
(-0.00498794 0.000574609 0)
(-0.00538441 0.000576725 0)
(-0.0057816 0.000576693 0)
(-0.00617807 0.000574626 0)
(-0.00657245 0.000570619 0)
(-0.00696341 0.000564761 0)
(-0.0073497 0.000557128 0)
(-0.00773009 0.000547784 0)
(-0.00810342 0.000536785 0)
(-0.00846855 0.000524178 0)
(-0.00882436 0.000510003 0)
(-0.00916977 0.000494291 0)
(-0.00950373 0.000477069 0)
(-0.0098252 0.00045836 0)
(-0.0101331 0.000438184 0)
(-0.0104266 0.000416558 0)
(-0.0107045 0.0003935 0)
(-0.0109659 0.000369029 0)
(-0.0112099 0.000343165 0)
(-0.0114354 0.000315935 0)
(-0.0116417 0.000287366 0)
(-0.0118278 0.000257495 0)
(-0.0119928 0.000226364 0)
(-0.012136 0.000194025 0)
(-0.0122565 0.000160537 0)
(-0.0123535 0.000125973 0)
(-0.0124265 9.04117e-05 0)
(-0.0124748 5.39478e-05 0)
(-0.0124978 1.66858e-05 0)
(-0.0124951 -2.12568e-05 0)
(-0.0124662 -5.975e-05 0)
(-0.0124109 -9.86511e-05 0)
(-0.012329 -0.000137805 0)
(-0.0122203 -0.000177045 0)
(-0.012085 -0.000216192 0)
(-0.0119231 -0.000255058 0)
(-0.011735 -0.000293441 0)
(-0.0115211 -0.000331136 0)
(-0.0112818 -0.000367927 0)
(-0.011018 -0.000403592 0)
(-0.0107305 -0.000437906 0)
(-0.0104203 -0.000470642 0)
(-0.0100886 -0.000501572 0)
(-0.00973655 -0.00053047 0)
(-0.00936573 -0.000557112 0)
(-0.00897771 -0.000581284 0)
(-0.00857422 -0.000602775 0)
(-0.00815715 -0.00062139 0)
(-0.00772847 -0.000636943 0)
(-0.0072903 -0.000649264 0)
(-0.00684487 -0.000658201 0)
(-0.00639447 -0.000663619 0)
(-0.00594151 -0.000665405 0)
(-0.00548844 -0.000663469 0)
(-0.00503776 -0.000657743 0)
(-0.00459201 -0.000648185 0)
(-0.00415376 -0.000634782 0)
(-0.00372554 -0.000617544 0)
(-0.0033099 -0.000596514 0)
(-0.00290931 -0.000571762 0)
(-0.00252621 -0.000543392 0)
(-0.00216292 -0.000511539 0)
(-0.00182168 -0.000476378 0)
(-0.00150456 -0.000438122 0)
(-0.00121347 -0.000397032 0)
(-0.000950134 -0.000353425 0)
(-0.000715999 -0.000307687 0)
(-0.000512231 -0.000260295 0)
(-0.000339628 -0.000211841 0)
(-0.000198546 -0.00016308 0)
(-8.87977e-05 -0.00011498 0)
(-9.51891e-06 -6.8812e-05 0)
(4.0994e-05 -2.62561e-05 0)
(6.54872e-05 1.04516e-05 0)
(6.79857e-05 3.83505e-05 0)
(5.40266e-05 5.36011e-05 0)
(3.08629e-05 5.14353e-05 0)
(7.1657e-06 2.65189e-05 0)
(2.09809e-06 -2.8073e-05 0)
(3.34059e-06 -3.30774e-05 0)
(-1.32046e-05 -6.54989e-07 0)
(-5.62449e-05 5.6566e-05 0)
(-0.000132241 0.00012908 0)
(-0.000245155 0.000209982 0)
(-0.000397084 0.000294345 0)
(-0.000588656 0.000378719 0)
(-0.00081939 0.000460735 0)
(-0.00108799 0.000538804 0)
(-0.00139257 0.0006119 0)
(-0.00173084 0.000679398 0)
(-0.00210024 0.000740961 0)
(-0.00249807 0.000796453 0)
(-0.00292153 0.000845882 0)
(-0.00336782 0.000889353 0)
(-0.00383416 0.000927041 0)
(-0.00431783 0.000959159 0)
(-0.00481618 0.000985947 0)
(-0.00532668 0.00100766 0)
(-0.00584687 0.00102454 0)
(-0.00637442 0.00103685 0)
(-0.00690709 0.00104483 0)
(-0.00744273 0.00104868 0)
(-0.00797932 0.00104864 0)
(-0.00851491 0.00104488 0)
(-0.00904763 0.00103758 0)
(-0.0095757 0.00102689 0)
(-0.0100974 0.00101294 0)
(-0.0106111 0.000995856 0)
(-0.0111151 0.000975736 0)
(-0.011608 0.000952667 0)
(-0.0120882 0.000926721 0)
(-0.0125542 0.000897961 0)
(-0.0130047 0.000866438 0)
(-0.0134381 0.000832198 0)
(-0.0138532 0.000795281 0)
(-0.0142485 0.000755726 0)
(-0.0146227 0.000713569 0)
(-0.0149744 0.00066885 0)
(-0.0153025 0.000621613 0)
(-0.0156057 0.000571907 0)
(-0.0158827 0.000519793 0)
(-0.0161323 0.000465338 0)
(-0.0163534 0.000408627 0)
(-0.0165449 0.000349755 0)
(-0.0167058 0.000288838 0)
(-0.016835 0.000226006 0)
(-0.0169318 0.00016141 0)
(-0.0169953 9.52208e-05 0)
(-0.0170247 2.76314e-05 0)
(-0.0170195 -4.11446e-05 0)
(-0.0169792 -0.000110871 0)
(-0.0169034 -0.00018129 0)
(-0.0167918 -0.000252121 0)
(-0.0166444 -0.000323064 0)
(-0.0164612 -0.000393798 0)
(-0.0162425 -0.000463983 0)
(-0.0159886 -0.000533262 0)
(-0.0157002 -0.000601264 0)
(-0.015378 -0.000667605 0)
(-0.0150229 -0.00073189 0)
(-0.0146362 -0.000793719 0)
(-0.0142191 -0.000852686 0)
(-0.0137733 -0.000908385 0)
(-0.0133004 -0.000960416 0)
(-0.0128025 -0.00100838 0)
(-0.0122816 -0.0010519 0)
(-0.01174 -0.00109061 0)
(-0.0111802 -0.00112414 0)
(-0.010605 -0.00115219 0)
(-0.010017 -0.00117444 0)
(-0.0094192 -0.00119064 0)
(-0.0088147 -0.00120053 0)
(-0.00820663 -0.00120393 0)
(-0.00759824 -0.00120068 0)
(-0.00699284 -0.00119066 0)
(-0.00639376 -0.00117381 0)
(-0.00580439 -0.0011501 0)
(-0.00522806 -0.00111956 0)
(-0.00466811 -0.00108227 0)
(-0.0041278 -0.00103838 0)
(-0.00361028 -0.00098808 0)
(-0.00311862 -0.000931625 0)
(-0.00265568 -0.000869344 0)
(-0.00222417 -0.000801637 0)
(-0.00182655 -0.000728995 0)
(-0.00146498 -0.000652005 0)
(-0.00114132 -0.000571383 0)
(-0.000856992 -0.000487997 0)
(-0.000612963 -0.000402916 0)
(-0.000409624 -0.000317469 0)
(-0.000246677 -0.000233331 0)
(-0.000123006 -0.000152632 0)
(-3.65058e-05 -7.81127e-05 0)
(1.61109e-05 -1.33056e-05 0)
(3.95298e-05 3.72432e-05 0)
(4.00423e-05 6.77541e-05 0)
(2.57872e-05 7.10298e-05 0)
(6.36629e-06 3.85058e-05 0)
(-1.49849e-06 -2.73379e-05 0)
(-1.48949e-05 -1.7068e-05 0)
(-5.47635e-05 4.15131e-05 0)
(-0.000129336 0.000132624 0)
(-0.00024479 0.00024416 0)
(-0.000404856 0.000367107 0)
(-0.00061148 0.000494858 0)
(-0.000865154 0.00062265 0)
(-0.00116524 0.000747111 0)
(-0.00151024 0.000865907 0)
(-0.001898 0.000977475 0)
(-0.00232591 0.00108082 0)
(-0.00279103 0.00117536 0)
(-0.00329023 0.00126083 0)
(-0.00382024 0.00133717 0)
(-0.00437779 0.00140447 0)
(-0.00495957 0.00146296 0)
(-0.00556234 0.00151291 0)
(-0.00618296 0.00155465 0)
(-0.00681833 0.00158853 0)
(-0.0074655 0.00161492 0)
(-0.00812162 0.00163418 0)
(-0.00878395 0.00164665 0)
(-0.00944987 0.00165267 0)
(-0.0101169 0.00165254 0)
(-0.0107825 0.00164656 0)
(-0.0114445 0.00163497 0)
(-0.0121007 0.00161803 0)
(-0.0127489 0.00159593 0)
(-0.013387 0.00156886 0)
(-0.014013 0.00153697 0)
(-0.014625 0.0015004 0)
(-0.0152212 0.00145927 0)
(-0.0157996 0.00141368 0)
(-0.0163585 0.00136371 0)
(-0.0168962 0.00130946 0)
(-0.0174108 0.00125097 0)
(-0.0179008 0.00118833 0)
(-0.0183644 0.00112159 0)
(-0.0188 0.00105082 0)
(-0.019206 0.000976108 0)
(-0.019581 0.000897533 0)
(-0.0199233 0.000815194 0)
(-0.0202315 0.000729209 0)
(-0.0205043 0.000639715 0)
(-0.0207402 0.000546869 0)
(-0.0209381 0.000450856 0)
(-0.0210968 0.000351889 0)
(-0.0212151 0.000250206 0)
(-0.0212922 0.000146081 0)
(-0.0213271 3.98189e-05 0)
(-0.0213191 -6.82438e-05 0)
(-0.0212677 -0.000177736 0)
(-0.0211723 -0.000288251 0)
(-0.0210328 -0.000399354 0)
(-0.0208491 -0.000510572 0)
(-0.0206212 -0.000621407 0)
(-0.0203495 -0.00073133 0)
(-0.0200345 -0.000839787 0)
(-0.0196769 -0.000946201 0)
(-0.0192777 -0.00104998 0)
(-0.0188381 -0.0011505 0)
(-0.0183595 -0.00124716 0)
(-0.0178436 -0.00133932 0)
(-0.0172922 -0.00142637 0)
(-0.0167076 -0.00150767 0)
(-0.0160922 -0.00158262 0)
(-0.0154484 -0.00165063 0)
(-0.0147793 -0.00171114 0)
(-0.0140877 -0.0017636 0)
(-0.013377 -0.00180751 0)
(-0.0126505 -0.00184242 0)
(-0.0119119 -0.00186791 0)
(-0.0111648 -0.00188362 0)
(-0.0104131 -0.00188925 0)
(-0.0096608 -0.00188457 0)
(-0.00891185 -0.0018694 0)
(-0.00817032 -0.00184364 0)
(-0.00744032 -0.00180728 0)
(-0.00672589 -0.00176036 0)
(-0.00603105 -0.00170303 0)
(-0.00535976 -0.00163551 0)
(-0.00471581 -0.00155813 0)
(-0.00410287 -0.00147131 0)
(-0.00352441 -0.00137556 0)
(-0.00298364 -0.00127155 0)
(-0.00248348 -0.00116005 0)
(-0.0020265 -0.001042 0)
(-0.00161486 -0.000918528 0)
(-0.00125024 -0.000790999 0)
(-0.000933726 -0.000661061 0)
(-0.000665767 -0.000530729 0)
(-0.000446013 -0.000402492 0)
(-0.000273206 -0.000279448 0)
(-0.000145025 -0.000165482 0)
(-5.79131e-05 -6.54793e-05 0)
(-6.89156e-06 1.4417e-05 0)
(1.46169e-05 6.65241e-05 0)
(1.50711e-05 8.13194e-05 0)
(4.32562e-06 4.72773e-05 0)
(-5.66665e-06 -1.9196e-05 0)
(-3.58984e-05 1.81963e-05 0)
(-0.000102247 0.000112716 0)
(-0.000212024 0.000246241 0)
(-0.000370688 0.00040456 0)
(-0.00058136 0.000576845 0)
(-0.000845545 0.000754966 0)
(-0.0011634 0.000932918 0)
(-0.00153401 0.00110634 0)
(-0.00195561 0.00127214 0)
(-0.00242577 0.00142817 0)
(-0.00294157 0.00157303 0)
(-0.00349976 0.00170587 0)
(-0.00409683 0.00182623 0)
(-0.00472915 0.00193397 0)
(-0.005393 0.00202915 0)
(-0.00608468 0.00211202 0)
(-0.00680049 0.00218291 0)
(-0.00753683 0.00224223 0)
(-0.00829017 0.00229044 0)
(-0.0090571 0.00232801 0)
(-0.00983431 0.00235542 0)
(-0.0106186 0.00237313 0)
(-0.011407 0.0023816 0)
(-0.0121965 0.00238125 0)
(-0.0129842 0.00237247 0)
(-0.0137675 0.00235562 0)
(-0.0145437 0.00233102 0)
(-0.0153104 0.00229897 0)
(-0.016065 0.00225973 0)
(-0.0168052 0.00221351 0)
(-0.0175288 0.00216053 0)
(-0.0182334 0.00210094 0)
(-0.0189169 0.00203491 0)
(-0.0195772 0.00196255 0)
(-0.0202121 0.00188399 0)
(-0.0208197 0.00179933 0)
(-0.0213979 0.00170868 0)
(-0.0219449 0.00161215 0)
(-0.0224586 0.00150983 0)
(-0.0229372 0.00140185 0)
(-0.0233789 0.00128834 0)
(-0.0237819 0.00116946 0)
(-0.0241446 0.00104537 0)
(-0.0244653 0.000916293 0)
(-0.0247424 0.000782453 0)
(-0.0249745 0.000644123 0)
(-0.0251602 0.000501614 0)
(-0.0252984 0.000355277 0)
(-0.0253878 0.000205507 0)
(-0.0254275 5.27442e-05 0)
(-0.0254166 -0.000102525 0)
(-0.0253546 -0.000259768 0)
(-0.0252409 -0.000418403 0)
(-0.0250752 -0.000577804 0)
(-0.0248575 -0.0007373 0)
(-0.024588 -0.000896178 0)
(-0.0242669 -0.00105369 0)
(-0.023895 -0.00120904 0)
(-0.0234731 -0.00136141 0)
(-0.0230023 -0.00150996 0)
(-0.0224841 -0.00165382 0)
(-0.0219202 -0.00179212 0)
(-0.0213125 -0.00192397 0)
(-0.0206632 -0.00204847 0)
(-0.0199749 -0.00216477 0)
(-0.0192504 -0.002272 0)
(-0.0184927 -0.00236932 0)
(-0.0177051 -0.00245593 0)
(-0.0168911 -0.00253108 0)
(-0.0160546 -0.00259407 0)
(-0.0151994 -0.00264424 0)
(-0.0143297 -0.00268102 0)
(-0.0134499 -0.00270391 0)
(-0.0125644 -0.00271248 0)
(-0.0116778 -0.0027064 0)
(-0.0107948 -0.00268545 0)
(-0.00992001 -0.0026495 0)
(-0.0090582 -0.00259851 0)
(-0.00821406 -0.0025326 0)
(-0.00739222 -0.00245196 0)
(-0.00659723 -0.00235694 0)
(-0.00583347 -0.00224802 0)
(-0.00510514 -0.00212581 0)
(-0.00441621 -0.00199109 0)
(-0.00377036 -0.0018448 0)
(-0.00317091 -0.00168808 0)
(-0.00262078 -0.00152229 0)
(-0.00212242 -0.00134903 0)
(-0.00167771 -0.00117025 0)
(-0.00128791 -0.000988248 0)
(-0.000953527 -0.000805804 0)
(-0.000674242 -0.000626292 0)
(-0.000448772 -0.00045383 0)
(-0.000274745 -0.000293469 0)
(-0.000148559 -0.000151435 0)
(-6.52236e-05 -3.5402e-05 0)
(-1.82244e-05 4.51821e-05 0)
(8.11563e-07 7.87296e-05 0)
(1.53437e-06 5.126e-05 0)
(-1.00818e-05 -3.01385e-06 0)
(-5.81985e-05 7.44159e-05 0)
(-0.000152737 0.00021541 0)
(-0.000299872 0.000400261 0)
(-0.000504067 0.000613168 0)
(-0.000767571 0.000841834 0)
(-0.00109122 0.00107683 0)
(-0.00147466 0.00131105 0)
(-0.00191656 0.0015392 0)
(-0.00241482 0.00175748 0)
(-0.00296668 0.00196316 0)
(-0.00356894 0.00215442 0)
(-0.00421802 0.0023301 0)
(-0.00491008 0.00248956 0)
(-0.00564116 0.00263254 0)
(-0.00640718 0.00275906 0)
(-0.00720407 0.00286937 0)
(-0.00802775 0.00296385 0)
(-0.00887423 0.00304299 0)
(-0.0097396 0.00310734 0)
(-0.01062 0.00315748 0)
(-0.0115118 0.00319403 0)
(-0.0124114 0.00321755 0)
(-0.0133154 0.00322864 0)
(-0.0142203 0.00322783 0)
(-0.0151231 0.00321562 0)
(-0.0160206 0.00319249 0)
(-0.0169098 0.00315886 0)
(-0.0177879 0.00311511 0)
(-0.0186521 0.00306159 0)
(-0.0194996 0.0029986 0)
(-0.0203278 0.00292641 0)
(-0.0211343 0.00284524 0)
(-0.0219164 0.00275531 0)
(-0.0226717 0.0026568 0)
(-0.0233979 0.00254987 0)
(-0.0240926 0.00243467 0)
(-0.0247536 0.00231137 0)
(-0.0253786 0.0021801 0)
(-0.0259654 0.00204102 0)
(-0.0265119 0.00189431 0)
(-0.0270161 0.00174015 0)
(-0.0274759 0.00157877 0)
(-0.0278895 0.0014104 0)
(-0.0282549 0.00123534 0)
(-0.0285705 0.0010539 0)
(-0.0288345 0.000866477 0)
(-0.0290456 0.000673482 0)
(-0.0292022 0.000475399 0)
(-0.0293031 0.000272766 0)
(-0.0293473 6.61798e-05 0)
(-0.0293338 -0.000143701 0)
(-0.0292619 -0.000356154 0)
(-0.0291311 -0.000570399 0)
(-0.028941 -0.000785591 0)
(-0.0286917 -0.00100083 0)
(-0.0283833 -0.00121516 0)
(-0.0280162 -0.00142757 0)
(-0.0275913 -0.001637 0)
(-0.0271095 -0.00184237 0)
(-0.0265721 -0.00204254 0)
(-0.0259807 -0.00223636 0)
(-0.0253373 -0.00242266 0)
(-0.0246441 -0.00260025 0)
(-0.0239036 -0.00276795 0)
(-0.0231187 -0.00292461 0)
(-0.0222925 -0.00306907 0)
(-0.0214284 -0.00320024 0)
(-0.0205302 -0.00331704 0)
(-0.019602 -0.00341847 0)
(-0.0186478 -0.0035036 0)
(-0.0176722 -0.00357156 0)
(-0.0166799 -0.0036216 0)
(-0.0156758 -0.00365306 0)
(-0.0146647 -0.00366537 0)
(-0.013652 -0.00365811 0)
(-0.0126429 -0.00363099 0)
(-0.0116425 -0.00358383 0)
(-0.0106562 -0.00351663 0)
(-0.00968934 -0.00342952 0)
(-0.008747 -0.00332281 0)
(-0.00783429 -0.00319698 0)
(-0.00695612 -0.00305267 0)
(-0.00611718 -0.00289075 0)
(-0.00532189 -0.00271227 0)
(-0.00457433 -0.00251852 0)
(-0.00387821 -0.00231104 0)
(-0.00323675 -0.00209166 0)
(-0.00265268 -0.00186255 0)
(-0.0021281 -0.00162625 0)
(-0.00166443 -0.0013858 0)
(-0.00126233 -0.00114478 0)
(-0.000921551 -0.000907482 0)
(-0.000640906 -0.000679061 0)
(-0.000418113 -0.000465717 0)
(-0.000249703 -0.000274953 0)
(-0.000130893 -0.000115861 0)
(-5.5483e-05 5.52092e-07 0)
(-1.54633e-05 6.09681e-05 0)
(-1.66379e-06 4.952e-05 0)
(-1.455e-05 2.14334e-05 0)
(-8.08739e-05 0.00015237 0)
(-0.000204324 0.000350871 0)
(-0.000389864 0.000596273 0)
(-0.000640822 0.000871671 0)
(-0.000958396 0.00116365 0)
(-0.00134259 0.00146174 0)
(-0.00179238 0.00175789 0)
(-0.00230593 0.00204603 0)
(-0.0028807 0.00232165 0)
(-0.00351358 0.00258152 0)
(-0.00420101 0.0028234 0)
(-0.00493909 0.00304585 0)
(-0.0057237 0.00324801 0)
(-0.00655054 0.0034295 0)
(-0.00741522 0.00359029 0)
(-0.00831333 0.00373062 0)
(-0.00924047 0.00385091 0)
(-0.0101923 0.00395173 0)
(-0.0111646 0.00403372 0)
(-0.0121531 0.00409757 0)
(-0.0131538 0.00414401 0)
(-0.0141628 0.00417375 0)
(-0.0151764 0.00418748 0)
(-0.0161907 0.00418587 0)
(-0.0172023 0.00416955 0)
(-0.0182078 0.00413911 0)
(-0.0192038 0.00409507 0)
(-0.0201871 0.00403791 0)
(-0.0211547 0.00396808 0)
(-0.0221034 0.00388596 0)
(-0.0230304 0.00379188 0)
(-0.0239328 0.00368616 0)
(-0.0248079 0.00356905 0)
(-0.0256528 0.00344082 0)
(-0.0264649 0.00330167 0)
(-0.0272417 0.00315181 0)
(-0.0279806 0.00299145 0)
(-0.0286791 0.00282079 0)
(-0.0293348 0.00264005 0)
(-0.0299453 0.00244945 0)
(-0.0305083 0.00224926 0)
(-0.0310216 0.00203977 0)
(-0.0314831 0.00182131 0)
(-0.0318908 0.00159426 0)
(-0.0322426 0.00135904 0)
(-0.0325369 0.00111616 0)
(-0.0327719 0.000866174 0)
(-0.0329461 0.000609701 0)
(-0.0330581 0.000347445 0)
(-0.0331067 8.01805e-05 0)
(-0.033091 -0.00019124 0)
(-0.0330101 -0.000465884 0)
(-0.0328635 -0.000742745 0)
(-0.0326509 -0.00102074 0)
(-0.0323723 -0.0012987 0)
(-0.0320278 -0.00157541 0)
(-0.0316179 -0.00184957 0)
(-0.0311436 -0.00211983 0)
(-0.030606 -0.00238478 0)
(-0.0300064 -0.00264299 0)
(-0.0293467 -0.00289298 0)
(-0.028629 -0.00313324 0)
(-0.0278559 -0.00336228 0)
(-0.02703 -0.00357859 0)
(-0.0261546 -0.00378068 0)
(-0.0252331 -0.00396709 0)
(-0.0242694 -0.00413642 0)
(-0.0232675 -0.0042873 0)
(-0.0222318 -0.00441846 0)
(-0.0211671 -0.00452871 0)
(-0.0200782 -0.00461696 0)
(-0.0189703 -0.00468225 0)
(-0.0178488 -0.00472373 0)
(-0.0167192 -0.00474071 0)
(-0.0155871 -0.00473264 0)
(-0.0144584 -0.00469917 0)
(-0.0133387 -0.00464009 0)
(-0.012234 -0.0045554 0)
(-0.01115 -0.0044453 0)
(-0.0100925 -0.0043102 0)
(-0.00906688 -0.00415072 0)
(-0.00807865 -0.00396774 0)
(-0.00713292 -0.00376236 0)
(-0.00623452 -0.00353596 0)
(-0.00538792 -0.00329022 0)
(-0.00459717 -0.00302711 0)
(-0.00386583 -0.002749 0)
(-0.00319687 -0.00245863 0)
(-0.00259263 -0.00215922 0)
(-0.00205474 -0.00185455 0)
(-0.00158403 -0.00154905 0)
(-0.00118043 -0.00124794 0)
(-0.00084293 -0.000957374 0)
(-0.000569449 -0.000684671 0)
(-0.000356797 -0.000438522 0)
(-0.000200556 -0.000229285 0)
(-9.50152e-05 -6.93044e-05 0)
(-3.2696e-05 2.67259e-05 0)
(-5.04041e-06 4.15812e-05 0)
(-1.89585e-05 5.41223e-05 0)
(-0.000103365 0.000252228 0)
(-0.000255788 0.000519542 0)
(-0.000480001 0.000834946 0)
(-0.00077814 0.00118085 0)
(-0.00115025 0.00154306 0)
(-0.00159539 0.0019103 0)
(-0.00211178 0.00227379 0)
(-0.00269694 0.00262676 0)
(-0.00334784 0.00296416 0)
(-0.00406094 0.00328229 0)
(-0.00483232 0.00357852 0)
(-0.00565774 0.00385113 0)
(-0.00653275 0.00409908 0)
(-0.00745276 0.00432187 0)
(-0.00841308 0.00451941 0)
(-0.00940899 0.00469193 0)
(-0.0104358 0.00483989 0)
(-0.0114889 0.00496392 0)
(-0.0125636 0.00506475 0)
(-0.0136555 0.00514319 0)
(-0.0147603 0.00520007 0)
(-0.0158737 0.00523624 0)
(-0.0169916 0.00525251 0)
(-0.0181099 0.00524969 0)
(-0.019225 0.00522851 0)
(-0.020333 0.0051897 0)
(-0.0214303 0.00513388 0)
(-0.0225134 0.00506164 0)
(-0.023579 0.00497352 0)
(-0.0246237 0.00487 0)
(-0.0256442 0.00475148 0)
(-0.0266375 0.00461836 0)
(-0.0276006 0.00447098 0)
(-0.0285303 0.00430963 0)
(-0.0294239 0.00413461 0)
(-0.0302784 0.00394619 0)
(-0.0310911 0.00374463 0)
(-0.0318593 0.00353019 0)
(-0.0325802 0.00330316 0)
(-0.0332514 0.00306384 0)
(-0.0338702 0.00281255 0)
(-0.0344344 0.00254969 0)
(-0.0349415 0.00227568 0)
(-0.0353894 0.00199099 0)
(-0.0357759 0.00169618 0)
(-0.0360991 0.00139188 0)
(-0.0363572 0.00107878 0)
(-0.0365484 0.000757685 0)
(-0.0366714 0.000429461 0)
(-0.0367248 9.50836e-05 0)
(-0.0367076 -0.000244381 0)
(-0.0366188 -0.000587773 0)
(-0.036458 -0.000933832 0)
(-0.0362247 -0.00128121 0)
(-0.035919 -0.00162847 0)
(-0.0355411 -0.00197408 0)
(-0.0350916 -0.00231643 0)
(-0.0345713 -0.00265386 0)
(-0.0339815 -0.00298463 0)
(-0.0333238 -0.00330695 0)
(-0.0326002 -0.00361898 0)
(-0.031813 -0.00391889 0)
(-0.0309648 -0.0042048 0)
(-0.0300588 -0.00447486 0)
(-0.0290983 -0.00472723 0)
(-0.0280871 -0.0049601 0)
(-0.0270293 -0.00517175 0)
(-0.0259295 -0.00536049 0)
(-0.0247923 -0.00552476 0)
(-0.0236229 -0.00566307 0)
(-0.0224266 -0.00577411 0)
(-0.021209 -0.00585667 0)
(-0.019976 -0.00590972 0)
(-0.0187335 -0.00593241 0)
(-0.0174876 -0.00592409 0)
(-0.0162446 -0.00588431 0)
(-0.0150108 -0.00581285 0)
(-0.0137925 -0.00570971 0)
(-0.0125959 -0.00557517 0)
(-0.0114273 -0.00540973 0)
(-0.0102926 -0.00521422 0)
(-0.00919773 -0.00498971 0)
(-0.00814816 -0.0047376 0)
(-0.00714916 -0.00445964 0)
(-0.00620557 -0.00415789 0)
(-0.00532177 -0.00383484 0)
(-0.00450163 -0.00349337 0)
(-0.00374841 -0.00313686 0)
(-0.00306472 -0.00276924 0)
(-0.00245242 -0.00239503 0)
(-0.00191255 -0.00201953 0)
(-0.0014453 -0.00164887 0)
(-0.00104991 -0.00129019 0)
(-0.000724598 -0.000951843 0)
(-0.000466557 -0.00064362 0)
(-0.000271843 -0.000376987 0)
(-0.000135341 -0.000165396 0)
(-5.01814e-05 -2.45959e-05 0)
(-8.44839e-06 2.72767e-05 0)
(-2.32454e-05 9.48846e-05 0)
(-0.000125348 0.000373769 0)
(-0.000306379 0.000721299 0)
(-0.000568995 0.00111629 0)
(-0.000914143 0.0015408 0)
(-0.00134068 0.00198016 0)
(-0.00184664 0.00242254 0)
(-0.0024294 0.0028586 0)
(-0.0030858 0.00328105 0)
(-0.00381222 0.00368436 0)
(-0.00460465 0.00406444 0)
(-0.00545876 0.00441835 0)
(-0.00636996 0.00474414 0)
(-0.00733346 0.00504057 0)
(-0.00834436 0.00530705 0)
(-0.00939769 0.00554344 0)
(-0.0104884 0.00574997 0)
(-0.0116116 0.00592712 0)
(-0.0127624 0.00607559 0)
(-0.0139357 0.00619621 0)
(-0.015127 0.00628989 0)
(-0.0163316 0.00635757 0)
(-0.0175449 0.00640024 0)
(-0.0187626 0.00641883 0)
(-0.0199804 0.00641428 0)
(-0.0211943 0.00638746 0)
(-0.0224 0.00633919 0)
(-0.0235939 0.00627023 0)
(-0.0247721 0.00618127 0)
(-0.025931 0.00607295 0)
(-0.027067 0.00594584 0)
(-0.0281766 0.00580044 0)
(-0.0292565 0.00563723 0)
(-0.0303033 0.0054566 0)
(-0.0313139 0.00525894 0)
(-0.032285 0.00504461 0)
(-0.0332135 0.00481394 0)
(-0.0340966 0.00456726 0)
(-0.0349312 0.00430491 0)
(-0.0357144 0.00402724 0)
(-0.0364436 0.00373462 0)
(-0.0371159 0.00342749 0)
(-0.0377288 0.0031063 0)
(-0.0382797 0.0027716 0)
(-0.0387664 0.00242397 0)
(-0.0391864 0.00206411 0)
(-0.0395378 0.00169276 0)
(-0.0398185 0.00131082 0)
(-0.0400267 0.000919222 0)
(-0.0401609 0.000519057 0)
(-0.0402197 0.000111505 0)
(-0.0402019 -0.000302138 0)
(-0.0401065 -0.00072046 0)
(-0.0399331 -0.00114194 0)
(-0.0396812 -0.00156493 0)
(-0.0393507 -0.00198769 0)
(-0.038942 -0.00240838 0)
(-0.0384557 -0.00282506 0)
(-0.0378927 -0.0032357 0)
(-0.0372543 -0.0036382 0)
(-0.0365423 -0.00403041 0)
(-0.0357588 -0.00441013 0)
(-0.0349062 -0.0047751 0)
(-0.0339874 -0.0051231 0)
(-0.0330057 -0.00545188 0)
(-0.0319648 -0.00575922 0)
(-0.0308687 -0.00604296 0)
(-0.0297218 -0.00630099 0)
(-0.0285289 -0.00653131 0)
(-0.0272952 -0.00673202 0)
(-0.0260261 -0.00690136 0)
(-0.0247273 -0.0070377 0)
(-0.0234049 -0.00713963 0)
(-0.022065 -0.00720591 0)
(-0.0207141 -0.00723552 0)
(-0.0193589 -0.00722767 0)
(-0.0180059 -0.00718185 0)
(-0.0166619 -0.00709778 0)
(-0.0153337 -0.00697551 0)
(-0.0140281 -0.00681537 0)
(-0.0127516 -0.006618 0)
(-0.0115107 -0.00638439 0)
(-0.0103117 -0.00611589 0)
(-0.00916044 -0.00581419 0)
(-0.00806267 -0.00548141 0)
(-0.00702355 -0.00512006 0)
(-0.00604782 -0.00473312 0)
(-0.00513966 -0.00432407 0)
(-0.00430264 -0.00389692 0)
(-0.00353965 -0.0034563 0)
(-0.00285283 -0.00300754 0)
(-0.00224351 -0.00255675 0)
(-0.00171215 -0.00211097 0)
(-0.00125832 -0.00167829 0)
(-0.000880628 -0.00126803 0)
(-0.0005767 -0.000890964 0)
(-0.00034314 -0.000559523 0)
(-0.000175476 -0.000288061 0)
(-6.74679e-05 -9.31069e-05 0)
(-1.17967e-05 6.63915e-06 0)
(-2.73796e-05 0.000143473 0)
(-0.000146645 0.000516532 0)
(-0.000355658 0.000955648 0)
(-0.00065605 0.00143984 0)
(-0.00104763 0.00195113 0)
(-0.00152805 0.00247459 0)
(-0.0020943 0.00299807 0)
(-0.00274286 0.00351184 0)
(-0.00346983 0.00400823 0)
(-0.00427096 0.00448138 0)
(-0.00514172 0.00492687 0)
(-0.00607733 0.00534152 0)
(-0.00707281 0.00572317 0)
(-0.00812303 0.00607047 0)
(-0.00922279 0.00638272 0)
(-0.0103668 0.00665976 0)
(-0.0115498 0.00690181 0)
(-0.0127665 0.0071094 0)
(-0.0140118 0.00728331 0)
(-0.0152805 0.00742443 0)
(-0.0165677 0.0075338 0)
(-0.0178684 0.00761249 0)
(-0.0191778 0.00766159 0)
(-0.0204914 0.00768217 0)
(-0.0218047 0.00767531 0)
(-0.0231132 0.00764199 0)
(-0.0244127 0.00758317 0)
(-0.025699 0.00749971 0)
(-0.0269683 0.00739243 0)
(-0.0282165 0.00726206 0)
(-0.0294399 0.00710927 0)
(-0.0306347 0.00693466 0)
(-0.0317974 0.00673877 0)
(-0.0329244 0.0065221 0)
(-0.0340123 0.0062851 0)
(-0.0350577 0.00602821 0)
(-0.0360573 0.00575181 0)
(-0.0370079 0.00545633 0)
(-0.0379064 0.00514217 0)
(-0.0387496 0.00480976 0)
(-0.0395346 0.00445957 0)
(-0.0402586 0.0040921 0)
(-0.0409187 0.00370793 0)
(-0.0415122 0.00330771 0)
(-0.0420367 0.00289215 0)
(-0.0424896 0.00246207 0)
(-0.0428687 0.0020184 0)
(-0.043172 0.00156218 0)
(-0.0433975 0.00109455 0)
(-0.0435435 0.000616799 0)
(-0.0436085 0.000130337 0)
(-0.0435913 -0.000363292 0)
(-0.043491 -0.00086241 0)
(-0.0433067 -0.00136521 0)
(-0.0430382 -0.00186974 0)
(-0.0426854 -0.00237393 0)
(-0.0422485 -0.00287561 0)
(-0.0417283 -0.00337246 0)
(-0.0411256 -0.0038621 0)
(-0.0404419 -0.00434204 0)
(-0.0396791 -0.00480972 0)
(-0.0388392 -0.00526255 0)
(-0.0379251 -0.00569787 0)