/*--------------------------------*- C++ -*----------------------------------*\
| =========                 |                                                 |
| \\      /  F ield         | OpenFOAM: The Open Source CFD Toolbox           |
|  \\    /   O peration     | Version:  4.1                                   |
|   \\  /    A nd           | Web:      www.OpenFOAM.org                      |
|    \\/     M anipulation  |                                                 |
\*---------------------------------------------------------------------------*/
FoamFile
{
    version     2.0;
    format      ascii;
    class       volVectorField;
    location    "0.048";
    object      U;
}
// * * * * * * * * * * * * * * * * * * * * * * * * * * * * * * * * * * * * * //

dimensions      [0 1 -1 0 0 0 0];

internalField   nonuniform List<vector> 
100
(
(-0.00211237 0.00201903 0)
(-0.0052585 0.00198124 0)
(-0.0105975 0.00188722 0)
(-0.013018 0.000869076 0)
(-0.0152452 0.000437842 0)
(-0.015374 -0.000815789 0)
(-0.013669 -0.00129362 0)
(-0.0113031 -0.00243556 0)
(-0.00577927 -0.00258637 0)
(-0.0024317 -0.00264427 0)
(-0.00299812 0.00537063 0)
(-0.0084156 0.00638538 0)
(-0.0164222 0.00612381 0)
(-0.0202787 0.00351822 0)
(-0.0234949 0.00228029 0)
(-0.0236828 -0.00105508 0)
(-0.0211915 -0.00242446 0)
(-0.0174151 -0.00567325 0)
(-0.00917113 -0.0060898 0)
(-0.00339213 -0.00554096 0)
(-0.00352514 0.0135452 0)
(-0.00966664 0.0152896 0)
(-0.0186642 0.0140935 0)
(-0.0229826 0.00757935 0)
(-0.0266889 0.00417637 0)
(-0.0269676 -0.0036492 0)
(-0.024456 -0.0073825 0)
(-0.0202924 -0.015032 0)
(-0.0110326 -0.016702 0)
(-0.0043349 -0.0155382 0)
(-0.00549702 0.0183221 0)
(-0.0137898 0.0211559 0)
(-0.025482 0.0196001 0)
(-0.0310956 0.0111827 0)
(-0.035611 0.00677148 0)
(-0.0361464 -0.00347999 0)
(-0.0334113 -0.00836138 0)
(-0.0281868 -0.019007 0)
(-0.0161851 -0.0212974 0)
(-0.0067376 -0.0203948 0)
(-0.00662237 0.0332843 0)
(-0.0162492 0.0351571 0)
(-0.0296364 0.0321043 0)
(-0.0360146 0.0171083 0)
(-0.0413963 0.00973587 0)
(-0.0422283 -0.00684838 0)
(-0.0401215 -0.0152219 0)
(-0.0345936 -0.0335403 0)
(-0.0213022 -0.0385929 0)
(-0.00963044 -0.0394907 0)
(-0.0129439 0.0404709 0)
(-0.0280066 0.043372 0)
(-0.0450852 0.0394858 0)
(-0.053648 0.0223238 0)
(-0.0594803 0.0138254 0)
(-0.0610737 -0.00497152 0)
(-0.0600885 -0.0145648 0)
(-0.0535009 -0.0374512 0)
(-0.0369963 -0.0445431 0)
(-0.0175709 -0.0500891 0)
(-0.0152201 0.0755263 0)
(-0.0332944 0.0669775 0)
(-0.0518496 0.0592652 0)
(-0.0610849 0.0303596 0)
(-0.0675642 0.0180809 0)
(-0.0693176 -0.00812206 0)
(-0.0710519 -0.0226012 0)
(-0.0655059 -0.059318 0)
(-0.0516167 -0.0754488 0)
(-0.0262347 -0.0967633 0)
(-0.0378186 0.0868857 0)
(-0.067572 0.0783407 0)
(-0.0778677 0.0673718 0)
(-0.0857389 0.0369582 0)
(-0.0870163 0.0234887 0)
(-0.0887492 -0.00186616 0)
(-0.0965401 -0.0157139 0)
(-0.0918125 -0.0560839 0)
(-0.0864703 -0.0799692 0)
(-0.043745 -0.125174 0)
(-0.0326512 0.184381 0)
(-0.0393471 0.105659 0)
(-0.0312367 0.0806446 0)
(-0.0240967 0.037302 0)
(-0.0183272 0.0226811 0)
(-0.00992661 -0.00186127 0)
(-0.0178732 -0.0189133 0)
(-0.00921289 -0.0746436 0)
(-0.030657 -0.124726 0)
(-0.0103362 -0.234878 0)
(0.145412 0.152276 0)
(0.208097 0.0740912 0)
(0.316319 0.0531612 0)
(0.348419 0.0229245 0)
(0.373637 0.0119954 0)
(0.386212 -0.00282931 0)
(0.366635 -0.0114143 0)
(0.358923 -0.0413028 0)
(0.246505 -0.068871 0)
(0.169708 -0.155143 0)
)
;

boundaryField
{
    movingWall
    {
        type            fixedValue;
        value           uniform (1 0 0);
    }
    fixedWalls
    {
        type            noSlip;
    }
    frontAndBack
    {
        type            empty;
    }
}


// ************************************************************************* //
