/*--------------------------------*- C++ -*----------------------------------*\
| =========                 |                                                 |
| \\      /  F ield         | OpenFOAM: The Open Source CFD Toolbox           |
|  \\    /   O peration     | Version:  4.1                                   |
|   \\  /    A nd           | Web:      www.OpenFOAM.org                      |
|    \\/     M anipulation  |                                                 |
\*---------------------------------------------------------------------------*/
FoamFile
{
    version     2.0;
    format      ascii;
    class       volVectorField;
    location    "0.082";
    object      U;
}
// * * * * * * * * * * * * * * * * * * * * * * * * * * * * * * * * * * * * * //

dimensions      [0 1 -1 0 0 0 0];

internalField   nonuniform List<vector> 
100
(
(-0.00199566 0.00148543 0)
(-0.00521157 0.00161169 0)
(-0.0120142 0.00168045 0)
(-0.0151664 0.000630033 0)
(-0.0184349 0.000216334 0)
(-0.0188537 -0.00121022 0)
(-0.0168946 -0.00176347 0)
(-0.0138761 -0.00312806 0)
(-0.00646887 -0.00318224 0)
(-0.00268528 -0.00298071 0)
(-0.00323629 0.00577158 0)
(-0.0100369 0.00831864 0)
(-0.0215345 0.0085742 0)
(-0.0273525 0.00554686 0)
(-0.0326021 0.00388494 0)
(-0.0332494 -0.000629143 0)
(-0.0299629 -0.0028235 0)
(-0.0243566 -0.007543 0)
(-0.0120128 -0.00780932 0)
(-0.00407979 -0.00614213 0)
(-0.00385359 0.0147795 0)
(-0.0120402 0.019703 0)
(-0.0253874 0.0192721 0)
(-0.0322892 0.011249 0)
(-0.0386623 0.00641479 0)
(-0.0396983 -0.00445043 0)
(-0.0365305 -0.0104978 0)
(-0.0301082 -0.0217205 0)
(-0.0157028 -0.023591 0)
(-0.00556506 -0.0194257 0)
(-0.00602818 0.021511 0)
(-0.0170417 0.0295755 0)
(-0.0342031 0.0290731 0)
(-0.0432679 0.0185282 0)
(-0.0512716 0.0118989 0)
(-0.053187 -0.00290584 0)
(-0.0501819 -0.0115849 0)
(-0.0424201 -0.0282617 0)
(-0.0239606 -0.031549 0)
(-0.00888596 -0.0268389 0)
(-0.00708998 0.0381226 0)
(-0.0199476 0.0475795 0)
(-0.0396822 0.0460687 0)
(-0.0503768 0.0275664 0)
(-0.0604287 0.0167677 0)
(-0.063751 -0.0066571 0)
(-0.0627695 -0.0211994 0)
(-0.0551767 -0.0493506 0)
(-0.0345825 -0.0576766 0)
(-0.0136918 -0.0533868 0)
(-0.0139628 0.0479762 0)
(-0.0335834 0.0615187 0)
(-0.0587576 0.059752 0)
(-0.0731453 0.0387487 0)
(-0.084981 0.0262466 0)
(-0.090615 -0.000720544 0)
(-0.092605 -0.0185956 0)
(-0.0850456 -0.0560484 0)
(-0.0603699 -0.0712239 0)
(-0.024808 -0.0738276 0)
(-0.015784 0.0866491 0)
(-0.0383869 0.0917201 0)
(-0.0656921 0.0869349 0)
(-0.0812468 0.052399 0)
(-0.0947179 0.0350347 0)
(-0.101497 -0.00110839 0)
(-0.109316 -0.0266488 0)
(-0.105167 -0.0844509 0)
(-0.0857267 -0.1191 0)
(-0.0370448 -0.14166 0)
(-0.0403567 0.100293 0)
(-0.0753377 0.109948 0)
(-0.0912394 0.10291 0)
(-0.10176 0.0667861 0)
(-0.106566 0.0481193 0)
(-0.109976 0.0135106 0)
(-0.123426 -0.0120777 0)
(-0.119293 -0.0787892 0)
(-0.113239 -0.135227 0)
(-0.0496498 -0.194015 0)
(-0.0353966 0.205277 0)
(-0.0335168 0.140794 0)
(-0.0158538 0.11651 0)
(0.00405388 0.0652948 0)
(0.0167646 0.0448266 0)
(0.0361793 0.0122657 0)
(0.0289555 -0.0165126 0)
(0.0401034 -0.0997569 0)
(-0.00132348 -0.190056 0)
(0.00150777 -0.313322 0)
(0.150046 0.163252 0)
(0.234309 0.0878917 0)
(0.367989 0.0671368 0)
(0.423846 0.0335889 0)
(0.463669 0.0193739 0)
(0.490978 0.00145202 0)
(0.47549 -0.00991106 0)
(0.467782 -0.0447183 0)
(0.328333 -0.0839994 0)
(0.197146 -0.180617 0)
)
;

boundaryField
{
    movingWall
    {
        type            fixedValue;
        value           uniform (1 0 0);
    }
    fixedWalls
    {
        type            noSlip;
    }
    frontAndBack
    {
        type            empty;
    }
}


// ************************************************************************* //
