/*--------------------------------*- C++ -*----------------------------------*\
| =========                 |                                                 |
| \\      /  F ield         | OpenFOAM: The Open Source CFD Toolbox           |
|  \\    /   O peration     | Version:  4.1                                   |
|   \\  /    A nd           | Web:      www.OpenFOAM.org                      |
|    \\/     M anipulation  |                                                 |
\*---------------------------------------------------------------------------*/
FoamFile
{
    version     2.0;
    format      ascii;
    class       volVectorField;
    location    "0.0547";
    object      U;
}
// * * * * * * * * * * * * * * * * * * * * * * * * * * * * * * * * * * * * * //

dimensions      [0 1 -1 0 0 0 0];

internalField   nonuniform List<vector> 
441
(
(0.00342097 -0.00460928 0)
(0.00877739 -0.002561 0)
(-0.000640261 -2.17921e-165 0)
(0.00176079 -2.90189e-266 0)
(-0.00865956 -0.00704374 0)
(-0.00176079 -2.78705e-232 0)
(-1.09257e-202 -4.81065e-203 0)
(-1.2025e-203 -6.20969e-228 0)
(-1.54072e-212 -2.66393e-213 0)
(-0.00547492 8.19649e-266 0)
(-0.0663546 0.0219019 0)
(-0.0839015 0.0116257 0)
(-0.0954081 0.005489 0)
(-0.0853596 0.00065851 0)
(-0.0721221 -0.00118164 0)
(-0.0503239 -0.00253183 0)
(-0.0310903 -0.0019312 0)
(-0.0129442 -0.00166381 0)
(-0.000906783 0.000324042 0)
(0.00245972 0.000996049 0)
(0.00407132 0.00259234 0)
(0.00334605 -0.00739457 0)
(-0.0019193 0.0065807 0)
(-0.0270055 0.00787225 0)
(-0.0563541 0.0105601 0)
(-0.0993983 0.00977268 0)
(-0.138849 -0.00388752 0)
(-0.175327 -0.000331738 0)
(-0.20974 0.00138551 0)
(-0.239958 0.0115939 0)
(-0.270577 0.0589376 0)
(-0.291765 0.0546255 0)
(-0.287091 0.0177723 0)
(-0.275777 -0.00450895 0)
(-0.241008 -0.0246498 0)
(-0.200093 -0.0339411 0)
(-0.146875 -0.0397007 0)
(-0.0978084 -0.0352334 0)
(-0.0522933 -0.0297369 0)
(-0.0198091 -0.0152406 0)
(-0.00392085 -0.00671644 0)
(0.00427363 0.00415653 0)
(0.00676685 -0.00656979 0)
(-0.00555306 0.0274052 0)
(-0.0511441 0.0530661 0)
(-0.111399 0.070115 0)
(-0.183648 0.0743813 0)
(-0.257701 0.0721499 0)
(-0.335959 0.0683889 0)
(-0.397918 0.0624983 0)
(-0.458718 0.0585002 0)
(-0.487387 0.0559538 0)
(-0.482924 0.0392929 0)
(-0.467617 -0.00324638 0)
(-0.437631 -0.039937 0)
(-0.383649 -0.0748662 0)
(-0.319116 -0.0943846 0)
(-0.239097 -0.1051 0)
(-0.163757 -0.0953694 0)
(-0.0924959 -0.0801611 0)
(-0.040424 -0.0469701 0)
(-0.0102783 -0.0235077 0)
(0.00564173 0.00338297 0)
(0.00598912 -0.00885846 0)
(-0.0142795 0.0661313 0)
(-0.0875563 0.11376 0)
(-0.17258 0.145264 0)
(-0.271589 0.156421 0)
(-0.369957 0.150977 0)
(-0.465588 0.141388 0)
(-0.547074 0.124936 0)
(-0.613624 0.103192 0)
(-0.652261 0.080636 0)
(-0.659713 0.0346149 0)
(-0.639792 -0.0285873 0)
(-0.598961 -0.0885958 0)
(-0.527348 -0.14427 0)
(-0.441218 -0.178291 0)
(-0.334583 -0.196502 0)
(-0.232837 -0.181269 0)
(-0.134361 -0.154684 0)
(-0.0616677 -0.0966153 0)
(-0.0160533 -0.0541449 0)
(0.00744222 -0.000107905 0)
(6.3703e-165 0.00149728 0)
(-0.0211772 0.120523 0)
(-0.125092 0.210617 0)
(-0.229993 0.252825 0)
(-0.353885 0.270767 0)
(-0.472966 0.264476 0)
(-0.590402 0.244359 0)
(-0.688668 0.209568 0)
(-0.770027 0.163081 0)
(-0.817711 0.102695 0)
(-0.832325 0.0272451 0)
(-0.813858 -0.0637616 0)
(-0.766623 -0.151621 0)
(-0.681281 -0.232932 0)
(-0.575202 -0.286066 0)
(-0.440215 -0.314305 0)
(-0.309835 -0.294121 0)
(-0.177973 -0.252395 0)
(-0.082551 -0.163604 0)
(-0.0166646 -0.0934533 0)
(0.0140074 -0.00441487 0)
(-5.18624e-266 0.00525119 0)
(-0.0801799 0.195665 0)
(-0.173594 0.320767 0)
(-0.298639 0.375809 0)
(-0.433114 0.39932 0)
(-0.570089 0.388538 0)
(-0.701453 0.357696 0)
(-0.816732 0.30481 0)
(-0.911851 0.233041 0)
(-0.9754 0.142184 0)
(-1.00585 0.03104 0)
(-0.99524 -0.0952708 0)
(-0.949134 -0.220914 0)
(-0.854022 -0.337222 0)
(-0.730046 -0.418871 0)
(-0.56497 -0.464209 0)
(-0.401678 -0.44245 0)
(-0.230128 -0.384999 0)
(-0.106707 -0.256009 0)
(-0.0163666 -0.153859 0)
(0.0160807 -0.00156098 0)
(-0.0210048 0.0847816 0)
(-0.111221 0.290741 0)
(-0.218746 0.429477 0)
(-0.355964 0.510653 0)
(-0.507221 0.541516 0)
(-0.660652 0.531496 0)
(-0.810493 0.490311 0)
(-0.944328 0.419134 0)
(-1.05913 0.321578 0)
(-1.14208 0.196469 0)
(-1.19137 0.0475781 0)
(-1.19467 -0.120775 0)
(-1.15565 -0.291849 0)
(-1.05596 -0.452877 0)
(-0.917247 -0.57364 0)
(-0.719904 -0.644391 0)
(-0.520328 -0.626693 0)
(-0.296009 -0.549658 0)
(-0.142163 -0.374202 0)
(-0.00378096 -0.218013 0)
(5.79813e-266 -0.00402018 0)
(-0.0153445 0.139822 0)
(-0.105864 0.394524 0)
(-0.23933 0.56612 0)
(-0.395598 0.665086 0)
(-0.565627 0.704325 0)
(-0.737427 0.692158 0)
(-0.90542 0.641739 0)
(-1.06007 0.553367 0)
(-1.19685 0.431213 0)
(-1.30446 0.273884 0)
(-1.37884 0.084026 0)
(-1.40367 -0.132045 0)
(-1.38024 -0.35913 0)
(-1.2839 -0.577742 0)
(-1.136 -0.754214 0)
(-0.908634 -0.865043 0)
(-0.668314 -0.864665 0)
(-0.385187 -0.769211 0)
(-0.186121 -0.543705 0)
(-0.00286589 -0.305287 0)
(2.38995e-24 -1.19542e-24 0)
(-0.0135831 0.202661 0)
(-0.109816 0.512963 0)
(-0.260037 0.717751 0)
(-0.43165 0.835235 0)
(-0.618801 0.882179 0)
(-0.807094 0.869821 0)
(-0.993213 0.812171 0)
(-1.16847 0.709512 0)
(-1.32872 0.565762 0)
(-1.46329 0.377844 0)
(-1.56642 0.147359 0)
(-1.61946 -0.119909 0)
(-1.62005 -0.410242 0)
(-1.5373 -0.698351 0)
(-1.38987 -0.946751 0)
(-1.13866 -1.11503 0)
(-0.858854 -1.14652 0)
(-0.508116 -1.03678 0)
(-0.25271 -0.749144 0)
(-0.00451992 -0.411471 0)
(9.81013e-77 -5.97488e-25 0)
(-0.0119733 0.263875 0)
(-0.109528 0.642662 0)
(-0.271257 0.888773 0)
(-0.454075 1.02449 0)
(-0.654017 1.08029 0)
(-0.855282 1.0666 0)
(-1.05543 1.00342 0)
(-1.24836 0.888496 0)
(-1.42946 0.726214 0)
(-1.59052 0.510857 0)
(-1.72381 0.240456 0)
(-1.81006 -0.0796281 0)
(-1.843 -0.44074 0)
(-1.78608 -0.810515 0)
(-1.65265 -1.15207 0)
(-1.3908 -1.40176 0)
(-1.07774 -1.49368 0)
(-0.657316 -1.38517 0)
(-0.333764 -1.04185 0)
(-0.00623 -0.57258 0)
(2.74055e-164 -2.45253e-77 0)
(-0.0123993 0.320898 0)
(-0.113866 0.770547 0)
(-0.285157 1.06012 0)
(-0.475798 1.21583 0)
(-0.68303 1.2818 0)
(-0.890973 1.2693 0)
(-1.09749 1.20421 0)
(-1.30038 1.0821 0)
(-1.49421 0.907501 0)
(-1.67548 0.671311 0)
(-1.83426 0.367403 0)
(-1.95447 -0.00119589 0)
(-2.02502 -0.432381 0)
(-2.00735 -0.889678 0)
(-1.90608 -1.33884 0)
(-1.65641 -1.69358 0)
(-1.3297 -1.87519 0)
(-0.85202 -1.7885 0)
(-0.457139 -1.38896 0)
(-0.0745182 -0.757627 0)
(1.71738e-265 0.0127388 0)
(-0.0134972 0.391104 0)
(-0.115551 0.917592 0)
(-0.290725 1.25225 0)
(-0.481976 1.42311 0)
(-0.687379 1.49667 0)
(-0.891975 1.48103 0)
(-1.09303 1.41346 0)
(-1.29341 1.28472 0)
(-1.48645 1.10139 0)
(-1.67519 0.850077 0)
(-1.84839 0.51935 0)
(-1.99612 0.109966 0)
(-2.10429 -0.387529 0)
(-2.13567 -0.931817 0)
(-2.08566 -1.50218 0)
(-1.87684 -1.98469 0)
(-1.56328 -2.29712 0)
(-1.04411 -2.2716 0)
(-0.561012 -1.81371 0)
(-0.0728942 -1.04881 0)
(0.0509553 -0.0703016 0)
(-0.0174054 0.44561 0)
(-0.124733 1.04485 0)
(-0.306543 1.42367 0)
(-0.495363 1.60919 0)
(-0.689318 1.68998 0)
(-0.878309 1.67235 0)
(-1.05645 1.60463 0)
(-1.23608 1.47388 0)
(-1.40681 1.28888 0)
(-1.58298 1.03257 0)
(-1.75008 0.688853 0)
(-1.91145 0.254927 0)
(-2.04786 -0.290483 0)
(-2.13413 -0.907729 0)
(-2.15191 -1.59269 0)
(-2.01881 -2.2179 0)
(-1.76531 -2.70168 0)
(-1.22806 -2.79941 0)
(-0.699359 -2.35366 0)
(0.0387461 -1.37634 0)
(2.35259e-231 -0.0127388 0)
(-0.0226115 0.536148 0)
(-0.1326 1.20979 0)
(-0.31423 1.62672 0)
(-0.490765 1.80696 0)
(-0.659831 1.88272 0)
(-0.817614 1.84845 0)
(-0.954348 1.7731 0)
(-1.09245 1.63503 0)
(-1.2175 1.44887 0)
(-1.35581 1.19313 0)
(-1.49094 0.847503 0)
(-1.64142 0.407502 0)
(-1.78749 -0.165244 0)
(-1.92075 -0.828466 0)
(-2.01727 -1.61697 0)
(-1.99873 -2.37578 0)
(-1.86738 -3.08712 0)
(-1.41658 -3.35561 0)
(-0.888472 -3.07483 0)
(-0.00350196 -1.78458 0)
(5.70558e-202 4.53289e-184 0)
(-0.0391223 0.593764 0)
(-0.168588 1.33039 0)
(-0.359279 1.77796 0)
(-0.521279 1.94928 0)
(-0.647326 2.0152 0)
(-0.754767 1.96342 0)
(-0.822074 1.87917 0)
(-0.892649 1.73573 0)
(-0.941186 1.55263 0)
(-1.01329 1.3066 0)
(-1.08391 0.975613 0)
(-1.19658 0.553799 0)
(-1.32113 -0.00816188 0)
(-1.48936 -0.674112 0)
(-1.65191 -1.50699 0)
(-1.78797 -2.36474 0)
(-1.82018 -3.26805 0)
(-1.57385 -3.78726 0)
(-1.12035 -3.74392 0)
(-0.0109554 -2.29454 0)
(1.81316e-183 -2.41328e-185 0)
(-0.0580825 0.751807 0)
(-0.205987 1.53425 0)
(-0.392691 1.9888 0)
(-0.524145 2.09637 0)
(-0.58819 2.12332 0)
(-0.625067 2.0239 0)
(-0.602665 1.91521 0)
(-0.583589 1.75488 0)
(-0.533063 1.57124 0)
(-0.512782 1.33711 0)
(-0.491144 1.03059 0)
(-0.531166 0.646906 0)
(-0.599535 0.125697 0)
(-0.759063 -0.494385 0)
(-0.962722 -1.32158 0)
(-1.23446 -2.20406 0)
(-1.49163 -3.3063 0)
(-1.56703 -4.06257 0)
(-1.42585 -4.65545 0)
(-0.461323 -2.95182 0)
(4.3759e-254 -4.53289e-184 0)
(-0.123691 0.843785 0)
(-0.339078 1.65185 0)
(-0.518646 2.09088 0)
(-0.603388 2.13506 0)
(-0.552173 2.11535 0)
(-0.480522 1.97296 0)
(-0.321653 1.83864 0)
(-0.180833 1.66512 0)
(0.000823055 1.48335 0)
(0.135967 1.26704 0)
(0.274813 0.996105 0)
(0.32512 0.668043 0)
(0.344782 0.223324 0)
(0.209576 -0.301579 0)
(0.0197384 -1.02356 0)
(-0.412792 -1.82466 0)
(-0.83556 -2.90938 0)
(-1.53594 -3.85212 0)
(-1.6877 -4.76054 0)
(-2.06424 -3.79672 0)
(-2.55415e-264 -0.213959 0)
(-0.179072 1.23592 0)
(-0.43053 1.93351 0)
(-0.540073 2.27538 0)
(-0.520901 2.13017 0)
(-0.31351 2.0143 0)
(-0.0964047 1.79306 0)
(0.218409 1.62214 0)
(0.498324 1.43255 0)
(0.817424 1.25654 0)
(1.0748 1.06488 0)
(1.33272 0.840816 0)
(1.4865 0.581831 0)
(1.60541 0.237808 0)
(1.54642 -0.15985 0)
(1.41479 -0.709881 0)
(0.991207 -1.33217 0)
(0.477171 -2.2138 0)
(-0.425615 -3.1664 0)
(-1.12791 -4.21608 0)
(-1.85007 -4.49283 0)
(-0.855835 -2.30411 0)
(-0.399886 1.41897 0)
(-0.729035 1.98415 0)
(-0.535291 2.17542 0)
(-0.273268 1.89168 0)
(0.259472 1.69193 0)
(0.698369 1.43326 0)
(1.22845 1.24598 0)
(1.66335 1.06414 0)
(2.12066 0.908771 0)
(2.48269 0.75461 0)
(2.83579 0.586632 0)
(3.06125 0.403907 0)
(3.25463 0.166743 0)
(3.24182 -0.0952914 0)
(3.17933 -0.464575 0)
(2.76948 -0.864731 0)
(2.31247 -1.49264 0)
(1.30712 -2.21673 0)
(0.419655 -3.33999 0)
(-0.722912 -3.99145 0)
(-0.698806 -2.96138 0)
(-0.255603 2.4267 0)
(-0.0987251 2.06358 0)
(0.68668 1.8702 0)
(1.32576 1.32769 0)
(2.1282 1.06317 0)
(2.73857 0.817485 0)
(3.37446 0.663496 0)
(3.87064 0.536281 0)
(4.35685 0.437702 0)
(4.72972 0.349389 0)
(5.08065 0.26052 0)
(5.30277 0.168152 0)
(5.49324 0.0537797 0)
(5.49234 -0.0717821 0)
(5.45534 -0.247358 0)
(5.10477 -0.443555 0)
(4.72803 -0.782261 0)
(3.80701 -1.24095 0)
(2.85126 -2.25333 0)
(1.08536 -3.32853 0)
(-0.0448671 -3.79995 0)
(1.66852 1.67081 0)
(2.70843 0.976058 0)
(4.55143 0.749148 0)
(5.38906 0.423454 0)
(6.25143 0.285043 0)
(6.75393 0.176079 0)
(7.22457 0.119228 0)
(7.53947 0.0792557 0)
(7.83053 0.0535884 0)
(8.02907 0.0339841 0)
(8.21052 0.0166406 0)
(8.30307 0.000185281 0)
(8.38166 -0.020446 0)
(8.33237 -0.0412714 0)
(8.27986 -0.0770734 0)
(8.00078 -0.110896 0)
(7.75006 -0.201101 0)
(6.99863 -0.29446 0)
(6.2648 -0.62695 0)
(4.04712 -0.998999 0)
(2.00723 -1.82004 0)
)
;

boundaryField
{
    movingWall
    {
        type            fixedValue;
        value           uniform (10 0 0);
    }
    fixedWalls
    {
        type            noSlip;
    }
    frontAndBack
    {
        type            empty;
    }
}


// ************************************************************************* //
