/*--------------------------------*- C++ -*----------------------------------*\
| =========                 |                                                 |
| \\      /  F ield         | OpenFOAM: The Open Source CFD Toolbox           |
|  \\    /   O peration     | Version:  4.1                                   |
|   \\  /    A nd           | Web:      www.OpenFOAM.org                      |
|    \\/     M anipulation  |                                                 |
\*---------------------------------------------------------------------------*/
FoamFile
{
    version     2.0;
    format      ascii;
    class       volVectorField;
    location    "0.006";
    object      U;
}
// * * * * * * * * * * * * * * * * * * * * * * * * * * * * * * * * * * * * * //

dimensions      [0 1 -1 0 0 0 0];

internalField   nonuniform List<vector> 
100
(
(-0.000508481 0.000482308 0)
(-0.00149596 0.000430107 0)
(-0.00232726 0.000340776 0)
(-0.00291869 0.000209928 0)
(-0.00321967 7.41251e-05 0)
(-0.00322039 -7.34559e-05 0)
(-0.00292071 -0.000209478 0)
(-0.00232981 -0.000340783 0)
(-0.00149819 -0.000430521 0)
(-0.000509431 -0.000483132 0)
(-0.000587554 0.0015248 0)
(-0.00173414 0.00138796 0)
(-0.00267797 0.00109912 0)
(-0.00334786 0.000675172 0)
(-0.00368182 0.000238944 0)
(-0.00368276 -0.000236704 0)
(-0.00335055 -0.000673663 0)
(-0.00268137 -0.00109919 0)
(-0.00173722 -0.00138945 0)
(-0.000588922 -0.00152788 0)
(-0.000727407 0.00283988 0)
(-0.00207707 0.00253248 0)
(-0.00316379 0.00199588 0)
(-0.00393197 0.00120669 0)
(-0.00430027 0.000429334 0)
(-0.00430169 -0.000424942 0)
(-0.00393623 -0.00120364 0)
(-0.00316923 -0.00199592 0)
(-0.00208235 -0.00253515 0)
(-0.000729975 -0.00284586 0)
(-0.00101281 0.00424794 0)
(-0.00271917 0.00372761 0)
(-0.00400843 0.00294674 0)
(-0.00491718 0.00175144 0)
(-0.00531641 0.000632263 0)
(-0.00531861 -0.000624157 0)
(-0.00492411 -0.00174548 0)
(-0.0040173 -0.00294664 0)
(-0.00272819 -0.00373217 0)
(-0.00101749 -0.00426103 0)
(-0.00142852 0.00682954 0)
(-0.00359133 0.00560354 0)
(-0.00514389 0.00439111 0)
(-0.00624668 0.00249763 0)
(-0.00667597 0.000913982 0)
(-0.00667941 -0.000901132 0)
(-0.00625864 -0.00248789 0)
(-0.0051595 -0.0043909 0)
(-0.00360992 -0.00561063 0)
(-0.00143966 -0.00685109 0)
(-0.00248791 0.00883827 0)
(-0.005483 0.00699061 0)
(-0.00712035 0.00551508 0)
(-0.00839464 0.00303286 0)
(-0.00871528 0.00114266 0)
(-0.00872037 -0.00111817 0)
(-0.00841367 -0.00301143 0)
(-0.00714522 -0.00551061 0)
(-0.00551314 -0.00699549 0)
(-0.00250645 -0.00888952 0)
(-0.00362315 0.0160179 0)
(-0.00735476 0.0104526 0)
(-0.00910904 0.0080867 0)
(-0.0106189 0.00400665 0)
(-0.0108265 0.00154389 0)
(-0.0108327 -0.00151282 0)
(-0.0106502 -0.00398016 0)
(-0.00915041 -0.00808615 0)
(-0.00742789 -0.0104718 0)
(-0.0036817 -0.0161011 0)
(-0.00843401 0.018063 0)
(-0.0140989 0.010935 0)
(-0.0135355 0.00847607 0)
(-0.0148927 0.00398715 0)
(-0.0141892 0.00159556 0)
(-0.0141977 -0.00152646 0)
(-0.0149397 -0.00390838 0)
(-0.0135997 -0.0084305 0)
(-0.0141951 -0.0108754 0)
(-0.00849023 -0.0182727 0)
(-0.00945695 0.0433311 0)
(-0.0154663 0.0153942 0)
(-0.0136303 0.0112965 0)
(-0.0149975 0.0041485 0)
(-0.013818 0.00172188 0)
(-0.0137869 -0.0016667 0)
(-0.0149798 -0.00408968 0)
(-0.0134965 -0.0113058 0)
(-0.0154525 -0.015484 0)
(-0.00910338 -0.0437126 0)
(0.050941 0.0364518 0)
(0.04797 0.0111761 0)
(0.0715883 0.00777448 0)
(0.0720459 0.00258732 0)
(0.076412 0.00104998 0)
(0.0764799 -0.000996548 0)
(0.0721229 -0.00250017 0)
(0.0718353 -0.00770166 0)
(0.0482175 -0.0110124 0)
(0.0510925 -0.0362214 0)
)
;

boundaryField
{
    movingWall
    {
        type            fixedValue;
        value           uniform (1 0 0);
    }
    fixedWalls
    {
        type            noSlip;
    }
    frontAndBack
    {
        type            empty;
    }
}


// ************************************************************************* //
