/*--------------------------------*- C++ -*----------------------------------*\
| =========                 |                                                 |
| \\      /  F ield         | OpenFOAM: The Open Source CFD Toolbox           |
|  \\    /   O peration     | Version:  4.1                                   |
|   \\  /    A nd           | Web:      www.OpenFOAM.org                      |
|    \\/     M anipulation  |                                                 |
\*---------------------------------------------------------------------------*/
FoamFile
{
    version     2.0;
    format      ascii;
    class       volVectorField;
    location    "0.0673";
    object      U;
}
// * * * * * * * * * * * * * * * * * * * * * * * * * * * * * * * * * * * * * //

dimensions      [0 1 -1 0 0 0 0];

internalField   nonuniform List<vector> 
441
(
(0.0035471 -0.00469122 0)
(0.00919109 -0.00254367 0)
(-0.000635922 -2.18683e-165 0)
(0.00185175 -3.09676e-266 0)
(-0.00846925 -0.00740754 0)
(-0.00185175 -2.90781e-232 0)
(-1.11066e-202 -5.19174e-203 0)
(-1.2978e-203 -6.77446e-228 0)
(-1.62654e-212 -2.93982e-213 0)
(-0.0057996 8.63466e-266 0)
(-0.0707871 0.0232002 0)
(-0.0892733 0.012223 0)
(-0.101085 0.00568141 0)
(-0.0897186 0.00052073 0)
(-0.0748124 -0.0014296 0)
(-0.0510031 -0.00279537 0)
(-0.0302354 -0.00206515 0)
(-0.0112182 -0.00165048 0)
(0.000846947 0.000521142 0)
(0.00344553 0.00124461 0)
(0.00432082 0.00279257 0)
(0.00355811 -0.00785713 0)
(-0.00144464 0.00667066 0)
(-0.027084 0.00812194 0)
(-0.0575153 0.0105809 0)
(-0.102602 0.0102771 0)
(-0.144653 -0.00354638 0)
(-0.183997 -0.00023524 0)
(-0.221603 0.00152356 0)
(-0.254933 0.012412 0)
(-0.288684 0.0629674 0)
(-0.311954 0.0582356 0)
(-0.307036 0.0184625 0)
(-0.294141 -0.00577406 0)
(-0.255722 -0.0275398 0)
(-0.210395 -0.0374217 0)
(-0.152319 -0.043047 0)
(-0.0992741 -0.0375245 0)
(-0.0511286 -0.0306852 0)
(-0.0177459 -0.0146795 0)
(-0.0025656 -0.00545378 0)
(0.00461217 0.00519609 0)
(0.00713532 -0.00732413 0)
(-0.0053396 0.027712 0)
(-0.0523842 0.0546943 0)
(-0.115466 0.073108 0)
(-0.191968 0.0786099 0)
(-0.270888 0.0774389 0)
(-0.355231 0.0742508 0)
(-0.423243 0.0686152 0)
(-0.490197 0.0645129 0)
(-0.52277 0.0613857 0)
(-0.519055 0.042458 0)
(-0.502791 -0.00440587 0)
(-0.469635 -0.0449588 0)
(-0.410135 -0.0830462 0)
(-0.338865 -0.103877 0)
(-0.251501 -0.114205 0)
(-0.169823 -0.102085 0)
(-0.0939053 -0.0836926 0)
(-0.0395148 -0.0469466 0)
(-0.00923738 -0.0215505 0)
(0.00601817 0.00525207 0)
(0.00613727 -0.00994003 0)
(-0.0151758 0.0678892 0)
(-0.0918308 0.118253 0)
(-0.18166 0.152481 0)
(-0.287063 0.16606 0)
(-0.392711 0.162377 0)
(-0.496405 0.153745 0)
(-0.585833 0.137347 0)
(-0.659464 0.114256 0)
(-0.702965 0.0892079 0)
(-0.71213 0.0380041 0)
(-0.690935 -0.0320629 0)
(-0.645958 -0.0985728 0)
(-0.567232 -0.159466 0)
(-0.472323 -0.195877 0)
(-0.355932 -0.213596 0)
(-0.245398 -0.194557 0)
(-0.139905 -0.162656 0)
(-0.0630218 -0.0984799 0)
(-0.0159382 -0.0523689 0)
(0.00774183 0.00235749 0)
(6.61256e-165 0.00153432 0)
(-0.0228002 0.125237 0)
(-0.13249 0.220406 0)
(-0.244217 0.266945 0)
(-0.376844 0.288601 0)
(-0.505369 0.285004 0)
(-0.633052 0.266123 0)
(-0.74103 0.230623 0)
(-0.830935 0.180961 0)
(-0.884397 0.114735 0)
(-0.901309 0.0308442 0)
(-0.881596 -0.0703306 0)
(-0.829543 -0.167896 0)
(-0.735829 -0.25703 0)
(-0.619114 -0.314089 0)
(-0.471935 -0.34201 0)
(-0.330115 -0.316624 0)
(-0.188434 -0.267185 0)
(-0.0865944 -0.169208 0)
(-0.0175141 -0.0931839 0)
(0.01434 -0.00214573 0)
(-5.36761e-266 0.00549863 0)
(-0.0846264 0.204986 0)
(-0.184712 0.337757 0)
(-0.318578 0.39864 0)
(-0.463435 0.427104 0)
(-0.611748 0.419646 0)
(-0.754918 0.390027 0)
(-0.881388 0.335481 0)
(-0.986176 0.25848 0)
(-1.05657 0.158806 0)
(-1.09029 0.035496 0)
(-1.0788 -0.104845 0)
(-1.02777 -0.244086 0)
(-0.923473 -0.371501 0)
(-0.787446 -0.459309 0)
(-0.607938 -0.505048 0)
(-0.430582 -0.476999 0)
(-0.246157 -0.409308 0)
(-0.113886 -0.267431 0)
(-0.0186309 -0.156518 0)
(0.0161212 0.000466447 0)
(-0.0219945 0.0893137 0)
(-0.117798 0.306469 0)
(-0.233188 0.454735 0)
(-0.380507 0.543889 0)
(-0.543548 0.58099 0)
(-0.709668 0.575069 0)
(-0.872622 0.534983 0)
(-1.0188 0.460974 0)
(-1.14432 0.355921 0)
(-1.23503 0.218603 0)
(-1.28843 0.0535688 0)
(-1.29144 -0.133172 0)
(-1.24779 -0.322228 0)
(-1.13874 -0.498278 0)
(-0.987245 -0.628156 0)
(-0.773807 -0.700725 0)
(-0.55788 -0.676127 0)
(-0.317406 -0.586304 0)
(-0.152029 -0.3935 0)
(-0.00580095 -0.225024 0)
(5.89296e-266 -0.0040303 0)
(-0.0161735 0.147693 0)
(-0.112653 0.417324 0)
(-0.255294 0.601038 0)
(-0.422628 0.709785 0)
(-0.605285 0.756521 0)
(-0.790487 0.749024 0)
(-0.972136 0.699479 0)
(-1.13962 0.607059 0)
(-1.28755 0.475127 0)
(-1.40342 0.30235 0)
(-1.48257 0.0923225 0)
(-1.50781 -0.146573 0)
(-1.48055 -0.396281 0)
(-1.37552 -0.634254 0)
(-1.21526 -0.823547 0)
(-0.971327 -0.938522 0)
(-0.713441 -0.931746 0)
(-0.41129 -0.821437 0)
(-0.198264 -0.574432 0)
(-0.00330728 -0.318008 0)
(2.50778e-24 -1.12212e-24 0)
(-0.0143688 0.214643 0)
(-0.116569 0.543766 0)
(-0.276085 0.763146 0)
(-0.45871 0.892067 0)
(-0.658302 0.947571 0)
(-0.859636 0.940342 0)
(-1.05893 0.883224 0)
(-1.24645 0.775243 0)
(-1.41735 0.619472 0)
(-1.55988 0.412971 0)
(-1.66784 0.158534 0)
(-1.72187 -0.135742 0)
(-1.71979 -0.453106 0)
(-1.63001 -0.764883 0)
(-1.47214 -1.03018 0)
(-1.20589 -1.20571 0)
(-0.909223 -1.23252 0)
(-0.538485 -1.10672 0)
(-0.26743 -0.793846 0)
(-0.00478254 -0.43102 0)
(1.02481e-76 -6.26946e-25 0)
(-0.0125884 0.279233 0)
(-0.115276 0.680739 0)
(-0.28528 0.943933 0)
(-0.477873 1.09259 0)
(-0.688804 1.15789 0)
(-0.901449 1.14961 0)
(-1.11291 1.08653 0)
(-1.31619 0.965045 0)
(-1.50612 0.788709 0)
(-1.67372 0.552097 0)
(-1.81108 0.254605 0)
(-1.8985 -0.0958361 0)
(-1.93013 -0.487519 0)
(-1.86871 -0.884557 0)
(-1.72833 -1.24685 0)
(-1.4552 -1.50738 0)
(-1.12856 -1.59763 0)
(-0.689634 -1.47347 0)
(-0.350462 -1.10254 0)
(-0.00673629 -0.600573 0)
(2.85591e-164 -2.56203e-77 0)
(-0.0128041 0.33913 0)
(-0.117849 0.814723 0)
(-0.295146 1.12347 0)
(-0.493 1.29335 0)
(-0.708338 1.36946 0)
(-0.924526 1.36242 0)
(-1.13899 1.29686 0)
(-1.34883 1.16696 0)
(-1.54827 0.976553 0)
(-1.73341 0.717041 0)
(-1.89453 0.383876 0)
(-2.01552 -0.0171415 0)
(-2.08599 -0.480951 0)
(-2.0669 -0.967655 0)
(-1.96345 -1.44036 0)
(-1.70849 -1.80928 0)
(-1.37428 -1.99319 0)
(-0.883181 -1.89299 0)
(-0.47496 -1.46516 0)
(-0.078078 -0.794463 0)
(1.76019e-265 0.0130743 0)
(-0.013591 0.410804 0)
(-0.116885 0.965251 0)
(-0.294639 1.32058 0)
(-0.489285 1.50648 0)
(-0.698577 1.59057 0)
(-0.906946 1.5802 0)
(-1.11126 1.51145 0)
(-1.31392 1.37383 0)
(-1.50822 1.1734 0)
(-1.69722 0.897581 0)
(-1.87025 0.536721 0)
(-2.0178 0.0945501 0)
(-2.12677 -0.435632 0)
(-2.15982 -1.00938 0)
(-2.1128 -1.60419 0)
(-1.90591 -2.10315 0)
(-1.59287 -2.42183 0)
(-1.06787 -2.38706 0)
(-0.575991 -1.90184 0)
(-0.0747315 -1.09513 0)
(0.052297 -0.0738009 0)
(-0.0171328 0.465239 0)
(-0.122848 1.09283 0)
(-0.302989 1.49297 0)
(-0.490457 1.69398 0)
(-0.683093 1.7853 0)
(-0.870448 1.77252 0)
(-1.04632 1.70285 0)
(-1.22293 1.56234 0)
(-1.39011 1.35954 0)
(-1.56262 1.07849 0)
(-1.72681 0.705126 0)
(-1.88679 0.239755 0)
(-2.02446 -0.336373 0)
(-2.1149 -0.980887 0)
(-2.14033 -1.68899 0)
(-2.01618 -2.33103 0)
(-1.77218 -2.82471 0)
(-1.23843 -2.91872 0)
(-0.709272 -2.45184 0)
(0.0410274 -1.42979 0)
(2.41384e-231 -0.0130743 0)
(-0.021942 0.55372 0)
(-0.127261 1.25416 0)
(-0.302635 1.69206 0)
(-0.472677 1.88769 0)
(-0.634846 1.97371 0)
(-0.785345 1.94378 0)
(-0.914265 1.86589 0)
(-1.04429 1.71768 0)
(-1.16149 1.51384 0)
(-1.29292 1.23426 0)
(-1.42304 0.860777 0)
(-1.57128 0.392164 0)
(-1.71888 -0.207667 0)
(-1.85803 -0.893996 0)
(-1.96536 -1.70203 0)
(-1.96142 -2.47558 0)
(-1.84718 -3.19831 0)
(-1.4107 -3.46814 0)
(-0.891674 -3.17513 0)
(-0.00324179 -1.84165 0)
(5.77433e-202 4.56436e-184 0)
(-0.0381213 0.607464 0)
(-0.160244 1.36746 0)
(-0.340516 1.83461 0)
(-0.491272 2.02074 0)
(-0.605264 2.09646 0)
(-0.700365 2.0486 0)
(-0.755139 1.96163 0)
(-0.813712 1.80841 0)
(-0.851428 1.60873 0)
(-0.914871 1.34083 0)
(-0.979709 0.98486 0)
(-1.09027 0.538158 0)
(-1.21688 -0.0463816 0)
(-1.39196 -0.730355 0)
(-1.56652 -1.57758 0)
(-1.71977 -2.44591 0)
(-1.77343 -3.35913 0)
(-1.54925 -3.88293 0)
(-1.11426 -3.83601 0)
(-0.0112465 -2.35159 0)
(1.82574e-183 -8.53887e-185 0)
(-0.0569001 0.76016 0)
(-0.195808 1.56088 0)
(-0.369261 2.03257 0)
(-0.486033 2.15386 0)
(-0.534236 2.19003 0)
(-0.555178 2.09444 0)
(-0.517123 1.98358 0)
(-0.483803 1.81484 0)
(-0.421206 1.61688 0)
(-0.392101 1.36397 0)
(-0.365379 1.03618 0)
(-0.404543 0.631747 0)
(-0.47615 0.0923895 0)
(-0.64322 -0.540889 0)
(-0.858603 -1.37729 0)
(-1.14717 -2.26508 0)
(-1.42575 -3.37361 0)
(-1.5271 -4.13415 0)
(-1.40987 -4.73031 0)
(-0.463963 -3.00304 0)
(4.39175e-254 -4.56436e-184 0)
(-0.122629 0.846293 0)
(-0.329222 1.66673 0)
(-0.494998 2.11975 0)
(-0.563974 2.17607 0)
(-0.495407 2.16493 0)
(-0.406407 2.0266 0)
(-0.230717 1.89129 0)
(-0.0750651 1.71157 0)
(0.118645 1.51867 0)
(0.261891 1.2875 0)
(0.404567 0.999585 0)
(0.454098 0.654956 0)
(0.469081 0.196038 0)
(0.325427 -0.338467 0)
(0.124589 -1.06557 0)
(-0.322923 -1.86764 0)
(-0.763302 -2.95305 0)
(-1.48865 -3.89773 0)
(-1.66365 -4.80903 0)
(-2.06953 -3.83781 0)
(-2.57516e-264 -0.215103 0)
(-0.178578 1.23355 0)
(-0.423871 1.9376 0)
(-0.522151 2.2897 0)
(-0.489154 2.15452 0)
(-0.265772 2.0463 0)
(-0.0323205 1.82936 0)
(0.298584 1.65883 0)
(0.592719 1.46559 0)
(0.923322 1.28207 0)
(1.18823 1.07989 0)
(1.44929 0.843489 0)
(1.60153 0.572265 0)
(1.71491 0.217732 0)
(1.647 -0.186874 0)
(1.50463 -0.739738 0)
(1.06847 -1.36078 0)
(0.541079 -2.23909 0)
(-0.378988 -3.18983 0)
(-1.1002 -4.23924 0)
(-1.8452 -4.51789 0)
(-0.860412 -2.31149 0)
(-0.400256 1.41444 0)
(-0.727806 1.98162 0)
(-0.528077 2.17924 0)
(-0.256925 1.90278 0)
(0.28789 1.70908 0)
(0.740139 1.4543 0)
(1.28418 1.26823 0)
(1.732 1.08479 0)
(2.20019 0.925097 0)
(2.56971 0.764474 0)
(2.92628 0.588667 0)
(3.15068 0.398031 0)
(3.33898 0.154008 0)
(3.31762 -0.112533 0)
(3.24488 -0.48341 0)
(2.82374 -0.882069 0)
(2.35645 -1.50625 0)
(1.34026 -2.22671 0)
(0.442187 -3.34771 0)
(-0.713517 -3.99983 0)
(-0.700175 -2.96301 0)
(-0.256488 2.4235 0)
(-0.101832 2.06008 0)
(0.684005 1.86929 0)
(1.32679 1.33057 0)
(2.13625 1.06946 0)
(2.7558 0.826142 0)
(3.40225 0.673079 0)
(3.90881 0.545326 0)
(4.40419 0.444805 0)
(4.78363 0.353472 0)
(5.13786 0.260933 0)
(5.35938 0.164891 0)
(5.54572 0.0474628 0)
(5.53764 -0.0799482 0)
(5.49196 -0.255782 0)
(5.13221 -0.450772 0)
(4.74771 -0.786891 0)
(3.82036 -1.24322 0)
(2.86006 -2.25352 0)
(1.0894 -3.32957 0)
(-0.0456503 -3.79937 0)
(1.66785 1.67015 0)
(2.70538 0.975254 0)
(4.54663 0.748649 0)
(5.38456 0.423555 0)
(6.24945 0.285711 0)
(6.75615 0.177122 0)
(7.23203 0.120373 0)
(7.55223 0.0802498 0)
(7.84788 0.0541972 0)
(8.04948 0.0340684 0)
(8.23206 0.0161426 0)
(8.32347 -0.000809463 0)
(8.39908 -0.0217667 0)
(8.34526 -0.0426306 0)
(8.28791 -0.0781903 0)
(8.00415 -0.111512 0)
(7.75035 -0.201067 0)
(6.99726 -0.293876 0)
(6.2635 -0.62594 0)
(4.0464 -0.998033 0)
(2.00609 -1.81881 0)
)
;

boundaryField
{
    movingWall
    {
        type            fixedValue;
        value           uniform (10 0 0);
    }
    fixedWalls
    {
        type            noSlip;
    }
    frontAndBack
    {
        type            empty;
    }
}


// ************************************************************************* //
