/*--------------------------------*- C++ -*----------------------------------*\
| =========                 |                                                 |
| \\      /  F ield         | OpenFOAM: The Open Source CFD Toolbox           |
|  \\    /   O peration     | Version:  4.1                                   |
|   \\  /    A nd           | Web:      www.OpenFOAM.org                      |
|    \\/     M anipulation  |                                                 |
\*---------------------------------------------------------------------------*/
FoamFile
{
    version     2.0;
    format      ascii;
    class       volScalarField;
    location    "0.0559";
    object      p;
}
// * * * * * * * * * * * * * * * * * * * * * * * * * * * * * * * * * * * * * //

dimensions      [1 -1 -2 0 0 0 0];

internalField   nonuniform List<scalar> 
441
(
100000
99999.9
99999.8
99999.6
99999.7
99999.3
99999.5
99999.6
99999.6
100001
100001
100001
100001
100001
100001
100001
100001
100001
100001
100001
100001
100000
100000
100000
100000
100000
100000
100000
100000
100000
100000
100000
100000
100001
100001
100001
100001
100001
100001
100001
100001
100000
100000
99999.9
100000
99999.8
99999.9
99999.8
99999.8
100000
100000
100000
100000
100001
100001
100001
100001
100001
100001
100001
100000
100001
100000
100000
100000
100000
100000
100000
100000
100000
100000
100000
100000
100000
100000
100000
100001
100001
100001
100000
100001
100000
100001
100000
100001
99999.9
100000
99999.8
99999.9
99999.8
99999.9
100000
100000
100000
100000
100000
100000
100001
100001
100001
100001
100001
100000
100001
100000
99999.8
100000
99999.9
99999.9
99999.9
99999.9
99999.9
99999.9
100000
100000
100000
100000
100000
100001
100000
100001
100000
100001
100000
100001
100000
99999.5
99999.6
99999.6
99999.6
99999.6
99999.6
99999.6
99999.7
99999.7
99999.9
99999.9
100000
100000
100001
100000
100001
100000
100001
100000
100001
99999.4
99999.9
99999.7
99999.6
99999.6
99999.5
99999.5
99999.5
99999.5
99999.5
99999.6
99999.6
99999.9
99999.9
100000
100000
100001
100000
100001
99999.8
100001
99998.9
99999.4
99999.2
99999.1
99999.1
99999.1
99999.1
99999
99999.1
99999.1
99999.2
99999.2
99999.5
99999.6
100000
100000
100001
100000
100001
99999.9
100001
99998.7
99999.3
99999.1
99999
99998.9
99998.8
99998.8
99998.7
99998.6
99998.6
99998.6
99998.6
99998.9
99999
99999.5
99999.6
100000
100000
100001
99999.4
100001
99997.5
99998.6
99998.4
99998.3
99998.2
99998.1
99998.1
99998
99997.9
99997.8
99997.9
99997.9
99998.1
99998.3
99998.9
99999.2
100000
100000
100001
99999.8
100001
99998.8
99998.4
99998.2
99998
99997.9
99997.7
99997.7
99997.4
99997.3
99997
99996.9
99996.8
99996.9
99997.1
99997.7
99998.1
99999.3
99999.4
100001
99999.5
100001
99998.6
99997.2
99997
99996.8
99997
99996.7
99996.8
99996.4
99996.3
99996
99995.9
99995.7
99995.7
99995.9
99996.5
99997.3
99998.6
99999.3
100001
99999.5
100002
99995.4
99997.1
99997
99996.6
99996.7
99996.3
99996.3
99995.8
99995.6
99995.1
99994.7
99994.4
99994.1
99994.2
99994.6
99995.5
99997
99997.9
100000
99998.7
100001
99995
99995.1
99995.3
99994.8
99995.4
99995
99995.3
99994.8
99994.7
99994.2
99993.7
99993.4
99992.9
99993.2
99993.4
99994.8
99996.2
99998.6
100001
100001
100002
99992.8
99995.4
99995.6
99994.9
99995.6
99994.9
99995.2
99994.5
99994.3
99993.6
99992.9
99992.4
99991.7
99991.8
99991.7
99993.2
99994.6
99997.1
100000
99998.6
100003
99984.2
99991.4
99992.9
99992
99994
99993.4
99994.4
99993.8
99993.9
99993.2
99992.6
99992.1
99991.3
99991.7
99991.4
99994
99994.8
100001
100002
100012
100005
100029
99992.5
99994.2
99992.9
99994.9
99994
99994.9
99994
99994
99993.2
99992.5
99991.9
99991
99991.4
99991
99993.6
99994.7
100001
100004
100014
100016
100034
99981.9
99989.7
99988.1
99993.4
99992.5
99994.7
99994
99994.4
99993.6
99993
99992.6
99991.7
99992.5
99992.1
99995.7
99996.6
100005
100007
100023
100026
100045
99983.5
99992.8
99990.7
99995.2
99994
99995.8
99994.8
99995
99994.1
99993.4
99993
99992.1
99993
99992.7
99996.4
99997.6
100006
100009
100026
100031
100054
99942.1
99986.3
99985.5
99996.1
99994.7
99997.4
99996.3
99996.5
99995.5
99994.7
99994.2
99993.3
99994.2
99993.8
99997.8
99999
100009
100013
100038
100048
100107
)
;

boundaryField
{
    movingWall
    {
        type            zeroGradient;
    }
    fixedWalls
    {
        type            zeroGradient;
    }
    frontAndBack
    {
        type            empty;
    }
}


// ************************************************************************* //
