/*--------------------------------*- C++ -*----------------------------------*\
| =========                 |                                                 |
| \\      /  F ield         | OpenFOAM: The Open Source CFD Toolbox           |
|  \\    /   O peration     | Version:  4.1                                   |
|   \\  /    A nd           | Web:      www.OpenFOAM.org                      |
|    \\/     M anipulation  |                                                 |
\*---------------------------------------------------------------------------*/
FoamFile
{
    version     2.0;
    format      ascii;
    class       volVectorField;
    location    "0.022";
    object      U;
}
// * * * * * * * * * * * * * * * * * * * * * * * * * * * * * * * * * * * * * //

dimensions      [0 1 -1 0 0 0 0];

internalField   nonuniform List<vector> 
100
(
(-0.00148282 0.00161079 0)
(-0.0040117 0.0014665 0)
(-0.00691978 0.00129425 0)
(-0.00856934 0.000683962 0)
(-0.00965236 0.000347341 0)
(-0.00967422 -0.000354117 0)
(-0.00867097 -0.000697022 0)
(-0.00703376 -0.00132906 0)
(-0.00410444 -0.0015113 0)
(-0.0015364 -0.00167002 0)
(-0.00190458 0.00386253 0)
(-0.0053546 0.00385312 0)
(-0.00914747 0.00340373 0)
(-0.0113084 0.0018445 0)
(-0.012675 0.000977306 0)
(-0.012704 -0.000836553 0)
(-0.0114437 -0.00172062 0)
(-0.00929974 -0.00337805 0)
(-0.00548102 -0.00385411 0)
(-0.00197507 -0.00394824 0)
(-0.00228956 0.00907403 0)
(-0.00610106 0.00873305 0)
(-0.0103791 0.00758843 0)
(-0.0127491 0.0040317 0)
(-0.0142773 0.00203542 0)
(-0.0143174 -0.00191251 0)
(-0.0129674 -0.00394984 0)
(-0.0106251 -0.00767834 0)
(-0.00632571 -0.00889454 0)
(-0.00243437 -0.00937328 0)
(-0.00354558 0.0119099 0)
(-0.00854284 0.0114921 0)
(-0.0140369 0.0100413 0)
(-0.0169782 0.00534027 0)
(-0.0187389 0.00282534 0)
(-0.0188095 -0.00236686 0)
(-0.0173185 -0.00492705 0)
(-0.0144336 -0.00997229 0)
(-0.00891413 -0.0115093 0)
(-0.00376761 -0.012325 0)
(-0.00452399 0.0218293 0)
(-0.0102725 0.0193822 0)
(-0.0166713 0.0168197 0)
(-0.0199817 0.00843852 0)
(-0.0219867 0.00442166 0)
(-0.0220789 -0.00399937 0)
(-0.0205794 -0.00813092 0)
(-0.0173712 -0.0170182 0)
(-0.0110564 -0.0198401 0)
(-0.00508914 -0.0228605 0)
(-0.00878592 0.0257966 0)
(-0.0174283 0.0226205 0)
(-0.0252118 0.0196145 0)
(-0.029396 0.00987165 0)
(-0.031173 0.00542691 0)
(-0.0313623 -0.00412851 0)
(-0.030334 -0.0086177 0)
(-0.0263883 -0.0192623 0)
(-0.0187419 -0.0224931 0)
(-0.00961215 -0.0274661 0)
(-0.0110883 0.0497947 0)
(-0.0212375 0.0359893 0)
(-0.0296229 0.0305298 0)
(-0.034132 0.0137279 0)
(-0.035905 0.00747589 0)
(-0.0360431 -0.00620647 0)
(-0.0356119 -0.0126955 0)
(-0.0314998 -0.0307146 0)
(-0.0241754 -0.0371572 0)
(-0.0134707 -0.0533993 0)
(-0.0270648 0.0557769 0)
(-0.0441131 0.039055 0)
(-0.046625 0.0322415 0)
(-0.0509508 0.0147411 0)
(-0.049481 0.00829536 0)
(-0.049775 -0.00505909 0)
(-0.0529838 -0.0111572 0)
(-0.0492901 -0.0302056 0)
(-0.0478388 -0.0375319 0)
(-0.0287586 -0.0626151 0)
(-0.024157 0.125638 0)
(-0.0349838 0.0549648 0)
(-0.0313595 0.0408905 0)
(-0.0324167 0.0150091 0)
(-0.0292471 0.00820287 0)
(-0.0276161 -0.00522244 0)
(-0.0318968 -0.0121938 0)
(-0.0270292 -0.0402424 0)
(-0.0341866 -0.0581201 0)
(-0.0175891 -0.136455 0)
(0.114898 0.107727 0)
(0.137084 0.042388 0)
(0.205304 0.029804 0)
(0.21409 0.0105998 0)
(0.228043 0.00529585 0)
(0.230588 -0.0035766 0)
(0.216553 -0.00819489 0)
(0.213145 -0.0273639 0)
(0.143605 -0.0399901 0)
(0.120401 -0.105855 0)
)
;

boundaryField
{
    movingWall
    {
        type            fixedValue;
        value           uniform (1 0 0);
    }
    fixedWalls
    {
        type            noSlip;
    }
    frontAndBack
    {
        type            empty;
    }
}


// ************************************************************************* //
