/*--------------------------------*- C++ -*----------------------------------*\
| =========                 |                                                 |
| \\      /  F ield         | OpenFOAM: The Open Source CFD Toolbox           |
|  \\    /   O peration     | Version:  4.1                                   |
|   \\  /    A nd           | Web:      www.OpenFOAM.org                      |
|    \\/     M anipulation  |                                                 |
\*---------------------------------------------------------------------------*/
FoamFile
{
    version     2.0;
    format      ascii;
    class       volVectorField;
    location    "0.072";
    object      U;
}
// * * * * * * * * * * * * * * * * * * * * * * * * * * * * * * * * * * * * * //

dimensions      [0 1 -1 0 0 0 0];

internalField   nonuniform List<vector> 
6400
(
(7.65645e-06 -7.62076e-06 0)
(2.88313e-05 -1.10193e-05 0)
(4.60484e-05 -7.50933e-06 0)
(5.34057e-05 1.48482e-06 0)
(4.68698e-05 1.40297e-05 0)
(2.40772e-05 2.86177e-05 0)
(-1.61287e-05 4.41525e-05 0)
(-7.40276e-05 5.98577e-05 0)
(-0.00014928 7.5189e-05 0)
(-0.000241112 8.97686e-05 0)
(-0.000348455 0.000103338 0)
(-0.000470035 0.000115725 0)
(-0.000604453 0.000126819 0)
(-0.000750227 0.000136553 0)
(-0.000905833 0.000144896 0)
(-0.00106973 0.000151839 0)
(-0.0012404 0.00015739 0)
(-0.00141631 0.000161571 0)
(-0.00159599 0.000164416 0)
(-0.00177799 0.000165962 0)
(-0.00196094 0.000166255 0)
(-0.00214347 0.000165343 0)
(-0.00232431 0.000163278 0)
(-0.00250223 0.000160113 0)
(-0.00267606 0.000155904 0)
(-0.00284469 0.000150707 0)
(-0.00300706 0.00014458 0)
(-0.00316221 0.00013758 0)
(-0.0033092 0.000129765 0)
(-0.00344719 0.000121195 0)
(-0.00357537 0.000111928 0)
(-0.00369302 0.000102023 0)
(-0.00379949 9.15406e-05 0)
(-0.00389416 8.05408e-05 0)
(-0.00397651 6.90847e-05 0)
(-0.00404608 5.72336e-05 0)
(-0.00410247 4.505e-05 0)
(-0.00414535 3.2597e-05 0)
(-0.00417446 1.99387e-05 0)
(-0.00418961 7.14046e-06 0)
(-0.0041907 -5.73159e-06 0)
(-0.00417767 -1.861e-05 0)
(-0.00415055 -3.14262e-05 0)
(-0.00410945 -4.41104e-05 0)
(-0.00405455 -5.65919e-05 0)
(-0.00398612 -6.87987e-05 0)
(-0.00390448 -8.0658e-05 0)
(-0.00381007 -9.20964e-05 0)
(-0.00370337 -0.00010304 0)
(-0.00358497 -0.000113413 0)
(-0.00345552 -0.000123142 0)
(-0.00331578 -0.000132152 0)
(-0.00316656 -0.00014037 0)
(-0.00300877 -0.000147722 0)
(-0.00284338 -0.000154137 0)
(-0.00267146 -0.000159545 0)
(-0.00249414 -0.000163879 0)
(-0.00231262 -0.000167075 0)
(-0.00212817 -0.000169072 0)
(-0.00194214 -0.000169814 0)
(-0.00175592 -0.000169251 0)
(-0.00157096 -0.000167337 0)
(-0.00138875 -0.000164035 0)
(-0.00121082 -0.000159317 0)
(-0.00103874 -0.000153167 0)
(-0.00087407 -0.000145579 0)
(-0.00071839 -0.000136565 0)
(-0.000573253 -0.000126159 0)
(-0.000440174 -0.000114419 0)
(-0.000320594 -0.000101441 0)
(-0.000215845 -8.73636e-05 0)
(-0.000127096 -7.23902e-05 0)
(-5.52841e-05 -5.6808e-05 0)
(-1.01848e-06 -4.10211e-05 0)
(3.55508e-05 -2.55955e-05 0)
(5.4912e-05 -1.13201e-05 0)
(5.84362e-05 7.11912e-07 0)
(4.86857e-05 9.02347e-06 0)
(2.98355e-05 1.17687e-05 0)
(7.81374e-06 7.74811e-06 0)
(1.11844e-05 -2.8769e-05 0)
(4.30546e-05 -4.25687e-05 0)
(6.12414e-05 -2.47951e-05 0)
(5.20901e-05 1.46078e-05 0)
(6.02126e-06 6.77591e-05 0)
(-8.27889e-05 0.000128797 0)
(-0.000217373 0.000193457 0)
(-0.000398646 0.000258684 0)
(-0.000625949 0.000322312 0)
(-0.00089748 0.000382819 0)
(-0.00121061 0.000439152 0)
(-0.00156211 0.000490599 0)
(-0.00194836 0.000536699 0)
(-0.00236547 0.000577169 0)
(-0.0028094 0.000611864 0)
(-0.00327599 0.000640738 0)
(-0.00376111 0.00066382 0)
(-0.00426061 0.000681192 0)
(-0.00477042 0.000692981 0)
(-0.00528657 0.000699343 0)
(-0.00580517 0.00070046 0)
(-0.0063225 0.000696531 0)
(-0.00683494 0.000687766 0)
(-0.00733904 0.000674388 0)
(-0.00783151 0.000656626 0)
(-0.00830923 0.000634715 0)
(-0.00876923 0.000608892 0)
(-0.00920873 0.000579399 0)
(-0.00962512 0.000546481 0)
(-0.010016 0.000510384 0)
(-0.010379 0.000471355 0)
(-0.0107122 0.000429644 0)
(-0.0110137 0.000385504 0)
(-0.0112817 0.000339187 0)
(-0.0115148 0.000290951 0)
(-0.0117117 0.000241056 0)
(-0.0118711 0.000189763 0)
(-0.0119923 0.00013734 0)
(-0.0120744 8.40558e-05 0)
(-0.012117 3.01866e-05 0)
(-0.0121197 -2.3989e-05 0)
(-0.0120823 -7.81871e-05 0)
(-0.0120051 -0.000132119 0)
(-0.0118884 -0.000185491 0)
(-0.0117325 -0.000238006 0)
(-0.0115384 -0.000289362 0)
(-0.0113069 -0.000339252 0)
(-0.0110393 -0.000387369 0)
(-0.010737 -0.000433401 0)
(-0.0104016 -0.000477036 0)
(-0.010035 -0.000517961 0)
(-0.00963942 -0.000555865 0)
(-0.00921705 -0.000590439 0)
(-0.00877049 -0.000621378 0)
(-0.00830251 -0.000648385 0)
(-0.00781608 -0.00067117 0)
(-0.0073144 -0.000689452 0)
(-0.00680085 -0.000702966 0)
(-0.00627897 -0.00071146 0)
(-0.00575252 -0.000714703 0)
(-0.00522536 -0.000712487 0)
(-0.00470153 -0.000704628 0)
(-0.00418515 -0.000690978 0)
(-0.00368043 -0.000671423 0)
(-0.00319166 -0.000645897 0)
(-0.00272311 -0.00061439 0)
(-0.00227904 -0.000576959 0)
(-0.00186363 -0.000533749 0)
(-0.00148091 -0.000485014 0)
(-0.00113466 -0.000431149 0)
(-0.000828317 -0.000372738 0)
(-0.000564845 -0.000310613 0)
(-0.000346539 -0.000245943 0)
(-0.000174792 -0.000180356 0)
(-4.97908e-05 -0.000116101 0)
(2.9884e-05 -5.62829e-05 0)
(6.77791e-05 -5.1485e-06 0)
(7.01849e-05 3.15602e-05 0)
(4.70155e-05 4.62716e-05 0)
(1.20266e-05 2.9701e-05 0)
(7.87612e-06 -4.61603e-05 0)
(2.60714e-05 -6.08157e-05 0)
(1.81304e-05 -1.63594e-05 0)
(-3.35592e-05 6.83751e-05 0)
(-0.000141805 0.000178921 0)
(-0.000314635 0.000304435 0)
(-0.000556394 0.000436898 0)
(-0.00086851 0.000570443 0)
(-0.00125018 0.000700818 0)
(-0.00169889 0.000824976 0)
(-0.00221087 0.000940761 0)
(-0.00278142 0.00104668 0)
(-0.00340516 0.00114173 0)
(-0.00407628 0.00122528 0)
(-0.00478862 0.00129699 0)
(-0.00553589 0.0013567 0)
(-0.0063117 0.00140443 0)
(-0.00710967 0.00144032 0)
(-0.00792347 0.00146459 0)
(-0.0087469 0.00147756 0)
(-0.00957391 0.00147956 0)
(-0.0103986 0.001471 0)
(-0.0112153 0.00145229 0)
(-0.0120186 0.00142391 0)
(-0.0128033 0.0013863 0)
(-0.0135643 0.00133996 0)
(-0.0142971 0.00128538 0)
(-0.0149972 0.00122307 0)
(-0.0156604 0.00115354 0)
(-0.0162829 0.00107729 0)
(-0.016861 0.00099486 0)
(-0.0173916 0.000906768 0)
(-0.0178716 0.000813548 0)
(-0.0182983 0.000715736 0)
(-0.0186692 0.000613875 0)
(-0.0189824 0.000508515 0)
(-0.019236 0.000400213 0)
(-0.0194286 0.000289532 0)
(-0.0195589 0.000177045 0)
(-0.0196263 6.33354e-05 0)
(-0.0196301 -5.10075e-05 0)
(-0.0195703 -0.000165383 0)
(-0.0194469 -0.00027918 0)
(-0.0192605 -0.000391779 0)
(-0.0190119 -0.000502553 0)
(-0.0187024 -0.000610865 0)
(-0.0183335 -0.00071607 0)
(-0.0179072 -0.000817519 0)
(-0.0174257 -0.00091456 0)
(-0.0168916 -0.00100654 0)
(-0.016308 -0.00109279 0)
(-0.0156781 -0.00117268 0)
(-0.0150058 -0.00124556 0)
(-0.014295 -0.00131078 0)
(-0.0135502 -0.00136773 0)
(-0.012776 -0.00141582 0)
(-0.0119776 -0.00145446 0)
(-0.0111601 -0.0014831 0)
(-0.0103293 -0.00150123 0)
(-0.00949095 -0.00150838 0)
(-0.0086512 -0.00150413 0)
(-0.00781632 -0.00148812 0)
(-0.00699274 -0.00146006 0)
(-0.00618704 -0.00141974 0)
(-0.00540581 -0.00136705 0)
(-0.00465567 -0.001302 0)
(-0.00394316 -0.00122475 0)
(-0.00327462 -0.00113565 0)
(-0.00265617 -0.00103525 0)
(-0.00209346 -0.00092443 0)
(-0.00159162 -0.000804419 0)
(-0.00115496 -0.000676952 0)
(-0.000786772 -0.000544412 0)
(-0.000488966 -0.000410054 0)
(-0.000261683 -0.000278289 0)
(-0.000102776 -0.000155073 0)
(-7.18252e-06 -4.8402e-05 0)
(3.37855e-05 3.10877e-05 0)
(3.34244e-05 6.94219e-05 0)
(9.57144e-06 4.87205e-05 0)
(-8.46904e-07 -5.40258e-05 0)
(-1.22544e-05 -5.23776e-05 0)
(-6.47329e-05 3.50599e-05 0)
(-0.000177497 0.000181573 0)
(-0.00036482 0.000366404 0)
(-0.000635759 0.000573697 0)
(-0.000995261 0.000791473 0)
(-0.00144492 0.00101077 0)
(-0.00198371 0.00122496 0)
(-0.0026085 0.00142917 0)
(-0.0033146 0.00161988 0)
(-0.00409611 0.0017946 0)
(-0.00494624 0.00195161 0)
(-0.00585756 0.00208979 0)
(-0.00682221 0.00220847 0)
(-0.00783205 0.00230734 0)
(-0.0088788 0.00238635 0)
(-0.00995415 0.00244566 0)
(-0.0110498 0.00248561 0)
(-0.0121576 0.00250663 0)
(-0.0132697 0.00250929 0)
(-0.0143781 0.00249421 0)
(-0.0154754 0.00246208 0)
(-0.0165544 0.00241363 0)
(-0.0176082 0.00234964 0)
(-0.0186301 0.00227091 0)
(-0.0196138 0.00217826 0)
(-0.0205536 0.00207253 0)
(-0.0214437 0.00195457 0)
(-0.0222791 0.00182526 0)
(-0.0230549 0.00168548 0)
(-0.0237667 0.00153611 0)
(-0.0244106 0.00137806 0)
(-0.0249829 0.00121223 0)
(-0.0254804 0.00103955 0)
(-0.0259003 0.000860945 0)
(-0.0262402 0.00067737 0)
(-0.0264981 0.000489782 0)
(-0.0266725 0.000299152 0)
(-0.0267624 0.00010647 0)
(-0.0267671 -8.72616e-05 0)
(-0.0266862 -0.000281023 0)
(-0.0265202 -0.000473779 0)
(-0.0262697 -0.00066448 0)
(-0.0259358 -0.000852061 0)
(-0.0255202 -0.00103545 0)
(-0.0250251 -0.00121355 0)
(-0.0244529 -0.00138527 0)
(-0.0238067 -0.00154952 0)
(-0.0230901 -0.00170518 0)
(-0.0223072 -0.00185115 0)
(-0.0214623 -0.00198635 0)
(-0.0205604 -0.00210969 0)
(-0.019607 -0.00222012 0)
(-0.0186078 -0.0023166 0)
(-0.0175692 -0.00239813 0)
(-0.0164979 -0.00246375 0)
(-0.0154009 -0.00251256 0)
(-0.0142857 -0.00254372 0)
(-0.0131599 -0.00255646 0)
(-0.0120318 -0.00255011 0)
(-0.0109094 -0.00252409 0)
(-0.0098014 -0.00247796 0)
(-0.00871626 -0.00241141 0)
(-0.00766265 -0.00232431 0)
(-0.00664917 -0.00221673 0)
(-0.00568429 -0.00208901 0)
(-0.00477622 -0.00194178 0)
(-0.00393277 -0.00177605 0)
(-0.00316119 -0.00159332 0)
(-0.00246793 -0.00139568 0)
(-0.00185844 -0.00118601 0)
(-0.00133682 -0.00096819 0)
(-0.000905446 -0.000747404 0)
(-0.000564562 -0.000530544 0)
(-0.000311687 -0.000326713 0)
(-0.00014099 -0.000147871 0)
(-4.25917e-05 -9.61528e-06 0)
(-1.56588e-06 6.79038e-05 0)
(1.69373e-06 5.90714e-05 0)
(-1.31195e-05 -4.84082e-05 0)
(-6.43459e-05 -7.76609e-06 0)
(-0.000173566 0.000142246 0)
(-0.000360209 0.000368544 0)
(-0.000638776 0.000644858 0)
(-0.00101838 0.000950678 0)
(-0.0015039 0.00127017 0)
(-0.00209668 0.00159123 0)
(-0.00279522 0.0019047 0)
(-0.00359576 0.00220373 0)
(-0.00449273 0.00248326 0)
(-0.0054792 0.00273963 0)
(-0.00654715 0.00297024 0)
(-0.0076878 0.00317336 0)
(-0.00889181 0.0033479 0)
(-0.0101495 0.00349331 0)
(-0.0114509 0.00360941 0)
(-0.0127861 0.00369636 0)
(-0.0141451 0.00375457 0)
(-0.015518 0.00378465 0)
(-0.0168952 0.00378735 0)
(-0.0182672 0.00376357 0)
(-0.0196249 0.0037143 0)
(-0.0209594 0.0036406 0)
(-0.0222623 0.00354359 0)
(-0.0235255 0.00342446 0)
(-0.0247413 0.00328442 0)
(-0.0259024 0.00312472 0)
(-0.0270021 0.00294664 0)
(-0.028034 0.00275147 0)
(-0.0289922 0.00254053 0)
(-0.0298713 0.00231517 0)
(-0.0306663 0.00207673 0)
(-0.0313728 0.00182659 0)
(-0.0319868 0.00156613 0)
(-0.0325049 0.00129678 0)
(-0.0329242 0.00101995 0)
(-0.0332423 0.000737089 0)
(-0.0334573 0.000449675 0)
(-0.0335678 0.000159197 0)
(-0.033573 -0.00013283 0)
(-0.0334728 -0.000424867 0)
(-0.0332674 -0.000715356 0)
(-0.0329577 -0.00100271 0)
(-0.0325451 -0.00128534 0)
(-0.0320317 -0.00156161 0)
(-0.0314201 -0.0018299 0)
(-0.0307134 -0.00208856 0)
(-0.0299155 -0.00233594 0)
(-0.0290307 -0.00257039 0)
(-0.0280639 -0.00279026 0)
(-0.0270206 -0.00299392 0)
(-0.025907 -0.00317977 0)
(-0.0247297 -0.00334622 0)
(-0.0234957 -0.00349176 0)
(-0.0222129 -0.00361488 0)
(-0.0208893 -0.0037142 0)
(-0.0195336 -0.00378837 0)
(-0.0181548 -0.00383618 0)
(-0.0167625 -0.00385651 0)
(-0.0153663 -0.0038484 0)
(-0.0139763 -0.00381103 0)
(-0.0126027 -0.0037438 0)
(-0.011256 -0.0036463 0)
(-0.00994641 -0.00351842 0)
(-0.00868436 -0.00336035 0)
(-0.00747996 -0.00317265 0)
(-0.00634301 -0.00295635 0)
(-0.0052828 -0.00271303 0)
(-0.00430789 -0.00244495 0)
(-0.00342594 -0.00215526 0)
(-0.00264337 -0.00184815 0)
(-0.00196506 -0.0015292 0)
(-0.00139396 -0.00120572 0)
(-0.000930635 -0.000887233 0)
(-0.000572737 -0.000586053 0)
(-0.000314364 -0.000318035 0)
(-0.000145413 -0.000103424 0)
(-5.05594e-05 3.21577e-05 0)
(-9.79572e-06 5.67557e-05 0)
(-2.75374e-05 -2.69117e-05 0)
(-0.00012478 7.9051e-05 0)
(-0.000298456 0.000313688 0)
(-0.00056744 0.000639086 0)
(-0.000945619 0.00102443 0)
(-0.00144144 0.00144513 0)
(-0.00205911 0.0018818 0)
(-0.0027993 0.00231931 0)
(-0.00365981 0.00274602 0)
(-0.00463608 0.00315302 0)
(-0.00572165 0.00353361 0)
(-0.00690857 0.00388286 0)
(-0.00818774 0.00419719 0)
(-0.00954916 0.00447416 0)
(-0.0109822 0.00471218 0)
(-0.0124758 0.00491036 0)
(-0.0140186 0.00506838 0)
(-0.0155992 0.00518635 0)
(-0.0172061 0.00526473 0)
(-0.018828 0.00530429 0)
(-0.0204536 0.005306 0)
(-0.0220721 0.00527104 0)
(-0.0236729 0.00520072 0)
(-0.0252457 0.00509647 0)
(-0.0267806 0.00495983 0)
(-0.0282684 0.0047924 0)
(-0.0296999 0.00459585 0)
(-0.0310667 0.0043719 0)
(-0.032361 0.00412231 0)
(-0.0335752 0.0038489 0)
(-0.0347025 0.00355348 0)
(-0.0357365 0.00323792 0)
(-0.0366716 0.00290412 0)
(-0.0375023 0.00255398 0)
(-0.0382243 0.00218946 0)
(-0.0388334 0.00181252 0)
(-0.0393261 0.00142516 0)
(-0.0396998 0.00102941 0)
(-0.0399522 0.000627321 0)
(-0.0400818 0.000220991 0)
(-0.0400876 -0.000187464 0)
(-0.0399694 -0.000595895 0)
(-0.0397275 -0.00100212 0)
(-0.039363 -0.00140393 0)
(-0.0388776 -0.00179909 0)
(-0.0382737 -0.00218535 0)
(-0.0375544 -0.00256042 0)
(-0.0367233 -0.00292202 0)
(-0.0357849 -0.00326785 0)
(-0.0347443 -0.00359562 0)
(-0.0336072 -0.00390306 0)
(-0.0323802 -0.00418789 0)
(-0.0310702 -0.0044479 0)
(-0.0296851 -0.00468092 0)
(-0.0282331 -0.00488483 0)
(-0.0267233 -0.0050576 0)
(-0.025165 -0.00519731 0)
(-0.0235683 -0.00530214 0)
(-0.0219438 -0.00537043 0)
(-0.0203023 -0.00540069 0)
(-0.0186551 -0.00539162 0)
(-0.0170139 -0.00534218 0)
(-0.0153904 -0.00525156 0)
(-0.0137966 -0.00511931 0)
(-0.0122443 -0.00494533 0)
(-0.0107455 -0.00472998 0)
(-0.00931177 -0.00447412 0)
(-0.00795423 -0.00417926 0)
(-0.0066835 -0.00384764 0)
(-0.00550936 -0.00348243 0)
(-0.00444053 -0.00308792 0)
(-0.00348441 -0.00266976 0)
(-0.0026467 -0.00223534 0)
(-0.00193108 -0.00179418 0)
(-0.00133873 -0.00135841 0)
(-0.000867863 -0.0009435 0)
(-0.000513089 -0.000568907 0)
(-0.000264825 -0.000259003 0)
(-0.000108174 -4.39892e-05 0)
(-2.35028e-05 3.93077e-05 0)
(-4.31263e-05 1.17862e-05 0)
(-0.000189803 0.000211672 0)
(-0.000432446 0.000554742 0)
(-0.000788989 0.000999631 0)
(-0.00127219 0.00151195 0)
(-0.00188929 0.0020637 0)
(-0.00264336 0.00263234 0)
(-0.00353406 0.0032 0)
(-0.00455818 0.00375264 0)
(-0.00571018 0.00427934 0)
(-0.00698264 0.00477177 0)
(-0.0083666 0.00522366 0)
(-0.00985186 0.00563041 0)
(-0.0114273 0.00598879 0)
(-0.0130812 0.00629665 0)
(-0.0148011 0.00655274 0)
(-0.0165745 0.00675651 0)
(-0.0183887 0.00690801 0)
(-0.0202308 0.00700775 0)
(-0.0220882 0.00705663 0)
(-0.0239484 0.00705587 0)
(-0.0257991 0.00700691 0)
(-0.0276284 0.00691144 0)
(-0.0294249 0.00677128 0)
(-0.0311773 0.00658842 0)
(-0.0328753 0.00636492 0)
(-0.0345085 0.00610298 0)
(-0.0360676 0.00580483 0)
(-0.0375435 0.00547279 0)
(-0.0389279 0.00510923 0)
(-0.0402129 0.00471656 0)
(-0.0413914 0.00429725 0)
(-0.0424568 0.00385379 0)
(-0.0434034 0.00338872 0)
(-0.0442258 0.00290462 0)
(-0.0449195 0.00240409 0)
(-0.0454807 0.00188979 0)
(-0.0459062 0.00136441 0)
(-0.0461935 0.000830672 0)
(-0.0463409 0.000291355 0)
(-0.0463473 -0.000250736 0)
(-0.0462125 -0.000792749 0)
(-0.0459368 -0.0013318 0)
(-0.0455215 -0.00186495 0)
(-0.0449686 -0.00238926 0)
(-0.0442806 -0.00290174 0)
(-0.0434611 -0.00339937 0)
(-0.0425144 -0.00387915 0)
(-0.0414453 -0.00433804 0)
(-0.0402597 -0.00477302 0)
(-0.0389642 -0.0051811 0)
(-0.0375659 -0.0055593 0)
(-0.0360729 -0.00590472 0)
(-0.0344938 -0.00621449 0)
(-0.0328382 -0.00648587 0)
(-0.031116 -0.0067162 0)
(-0.0293379 -0.00690298 0)
(-0.0275152 -0.00704386 0)
(-0.0256596 -0.0071367 0)
(-0.0237835 -0.00717959 0)
(-0.0218995 -0.00717089 0)
(-0.0200205 -0.00710926 0)
(-0.0181598 -0.00699376 0)
(-0.0163307 -0.00682386 0)
(-0.0145465 -0.00659951 0)
(-0.0128203 -0.00632128 0)
(-0.0111652 -0.00599038 0)
(-0.00959345 -0.00560886 0)
(-0.00811694 -0.0051797 0)
(-0.00674657 -0.00470705 0)
(-0.00549212 -0.00419642 0)
(-0.00436197 -0.00365499 0)
(-0.00336278 -0.003092 0)
(-0.00249913 -0.00251912 0)
(-0.0017731 -0.00195107 0)
(-0.00118383 -0.00140618 0)
(-0.000726922 -0.000907165 0)
(-0.000393843 -0.000481919 0)
(-0.000170642 -0.000164293 0)
(-3.84479e-05 5.33336e-06 0)
(-5.92383e-05 6.82751e-05 0)
(-0.000256897 0.000391961 0)
(-0.000570775 0.00086844 0)
(-0.00101774 0.00145404 0)
(-0.00160911 0.00211169 0)
(-0.00235059 0.00281062 0)
(-0.00324378 0.00352564 0)
(-0.00428696 0.00423642 0)
(-0.00547571 0.00492672 0)
(-0.00680335 0.00558377 0)
(-0.00826135 0.0061976 0)
(-0.00983965 0.00676065 0)
(-0.011527 0.00726727 0)
(-0.0133112 0.00771341 0)
(-0.0151793 0.00809635 0)
(-0.017118 0.00841442 0)
(-0.0191133 0.00866684 0)
(-0.0211514 0.00885358 0)
(-0.0232184 0.00897517 0)
(-0.0253002 0.00903265 0)
(-0.0273834 0.00902747 0)
(-0.0294543 0.0089614 0)
(-0.0315 0.00883647 0)
(-0.0335079 0.00865496 0)
(-0.0354656 0.00841931 0)
(-0.0373616 0.00813212 0)
(-0.0391848 0.00779613 0)
(-0.0409246 0.00741416 0)
(-0.0425712 0.00698913 0)
(-0.0441153 0.00652403 0)
(-0.0455482 0.00602193 0)
(-0.0468622 0.00548594 0)
(-0.0480499 0.00491924 0)
(-0.0491049 0.00432506 0)
(-0.0500215 0.00370668 0)
(-0.0507946 0.00306742 0)
(-0.0514199 0.00241065 0)
(-0.051894 0.00173982 0)
(-0.0522141 0.00105839 0)
(-0.0523784 0.000369891 0)
(-0.0523856 -0.00032209 0)
(-0.0522354 -0.00101393 0)
(-0.0519284 -0.00170194 0)
(-0.0514659 -0.00238242 0)
(-0.0508499 -0.00305159 0)
(-0.0500836 -0.00370567 0)
(-0.0491707 -0.00434083 0)
(-0.048116 -0.00495325 0)
(-0.0469248 -0.00553909 0)
(-0.0456037 -0.00609453 0)
(-0.0441597 -0.00661576 0)
(-0.042601 -0.00709903 0)
(-0.0409362 -0.00754068 0)
(-0.0391751 -0.0079371 0)
(-0.0373279 -0.00828482 0)
(-0.0354057 -0.00858052 0)
(-0.0334203 -0.00882107 0)
(-0.031384 -0.00900353 0)
(-0.0293097 -0.00912524 0)
(-0.027211 -0.00918383 0)
(-0.0251017 -0.0091773 0)
(-0.022996 -0.00910403 0)
(-0.0209084 -0.0089629 0)
(-0.0188534 -0.00875331 0)
(-0.0168457 -0.00847531 0)
(-0.0148995 -0.00812968 0)
(-0.0130291 -0.00771803 0)
(-0.0112481 -0.00724298 0)
(-0.0095694 -0.0067083 0)
(-0.00800502 -0.00611915 0)
(-0.00656585 -0.0054823 0)
(-0.00526133 -0.00480649 0)
(-0.00409919 -0.00410272 0)
(-0.00308509 -0.00338479 0)
(-0.0022223 -0.00266978 0)
(-0.00151117 -0.00197865 0)
(-0.000948674 -0.00133694 0)
(-0.000527654 -0.000775418 0)
(-0.00023541 -0.000330771 0)
(-5.39736e-05 -4.58217e-05 0)
(-7.54562e-05 0.00014267 0)
(-0.000324423 0.000620596 0)
(-0.000710282 0.00125617 0)
(-0.00124885 0.0020043 0)
(-0.0019499 0.00282599 0)
(-0.00281735 0.00368833 0)
(-0.0038511 0.00456392 0)
(-0.00504784 0.00543034 0)
(-0.0064017 0.0062694 0)
(-0.00790468 0.00706658 0)
(-0.00954702 0.00781045 0)
(-0.0113175 0.00849217 0)
(-0.0132038 0.00910508 0)
(-0.0151926 0.00964434 0)
(-0.0172698 0.0101066 0)
(-0.019421 0.0104898 0)
(-0.0216312 0.010793 0)
(-0.0238855 0.0110159 0)
(-0.0261688 0.0111592 0)
(-0.0284662 0.011224 0)
(-0.0307627 0.0112121 0)
(-0.0330441 0.0111254 0)
(-0.0352961 0.0109665 0)
(-0.0375051 0.0107381 0)
(-0.0396578 0.0104432 0)
(-0.0417418 0.0100848 0)
(-0.0437449 0.00966628 0)
(-0.0456558 0.00919116 0)
(-0.0474638 0.00866298 0)
(-0.0491587 0.00808542 0)
(-0.0507314 0.00746223 0)
(-0.0521731 0.00679725 0)
(-0.0534762 0.0060944 0)
(-0.0546336 0.00535766 0)
(-0.055639 0.00459107 0)
(-0.0564869 0.00379873 0)
(-0.0571728 0.00298483 0)
(-0.0576929 0.00215358 0)
(-0.0580441 0.0013093 0)
(-0.0582245 0.000456336 0)
(-0.0582328 -0.000400888 0)
(-0.0580686 -0.00125789 0)
(-0.0577325 -0.00211014 0)
(-0.0572259 -0.00295304 0)
(-0.0565511 -0.00378196 0)
(-0.0557114 -0.00459222 0)
(-0.054711 -0.00537912 0)
(-0.0535549 -0.00613794 0)
(-0.0522491 -0.00686397 0)
(-0.0508004 -0.0075525 0)
(-0.0492168 -0.00819888 0)
(-0.0475068 -0.0087985 0)
(-0.0456799 -0.00934685 0)
(-0.0437467 -0.00983955 0)
(-0.0417182 -0.0102723 0)
(-0.0396064 -0.0106412 0)
(-0.037424 -0.0109422 0)
(-0.0351845 -0.0111719 0)
(-0.0329017 -0.0113271 0)
(-0.0305902 -0.0114048 0)
(-0.028265 -0.0114028 0)
(-0.0259415 -0.011319 0)
(-0.0236351 -0.0111522 0)
(-0.0213617 -0.0109017 0)
(-0.019137 -0.0105676 0)
(-0.0169766 -0.010151 0)
(-0.0148957 -0.00965391 0)
(-0.0129091 -0.00907949 0)
(-0.0110308 -0.00843234 0)
(-0.00927407 -0.00771863 0)
(-0.00765085 -0.0069464 0)
(-0.00617175 -0.00612586 0)
(-0.00484572 -0.00526975 0)
(-0.00367969 -0.00439385 0)
(-0.00267828 -0.00351737 0)
(-0.00184336 -0.0026636 0)
(-0.00117346 -0.00186048 0)
(-0.000663051 -0.0011411 0)
(-0.000300811 -0.000544248 0)
(-6.96537e-05 -0.000114329 0)
(-9.15231e-05 0.000234793 0)
(-0.000391363 0.000897483 0)
(-0.000848956 0.00171819 0)
(-0.00147917 0.00265106 0)
(-0.00229023 0.00365583 0)
(-0.00328415 0.00469793 0)
(-0.00445895 0.00574825 0)
(-0.00580958 0.00678257 0)
(-0.00732854 0.00778103 0)
(-0.00900638 0.00872758 0)
(-0.010832 0.00960943 0)
(-0.0127929 0.0104166 0)
(-0.0148756 0.0111414 0)
(-0.0170656 0.0117783 0)
(-0.0193478 0.0123234 0)
(-0.0217067 0.0127741 0)
(-0.0241263 0.0131294 0)
(-0.0265906 0.0133888 0)
(-0.0290834 0.0135531 0)
(-0.0315888 0.0136235 0)
(-0.0340911 0.013602 0)
(-0.0365747 0.0134911 0)
(-0.0390247 0.0132935 0)
(-0.0414263 0.0130125 0)
(-0.0437656 0.0126516 0)
(-0.046029 0.0122146 0)
(-0.0482038 0.0117054 0)
(-0.0502776 0.011128 0)
(-0.0522392 0.0104869 0)
(-0.0540776 0.00978635 0)
(-0.055783 0.0090309 0)
(-0.0573462 0.00822517 0)
(-0.0587589 0.00737386 0)
(-0.0600134 0.00648176 0)
(-0.0611031 0.00555373 0)
(-0.0620222 0.00459472 0)
(-0.0627658 0.00360977 0)
(-0.0633297 0.00260396 0)
(-0.0637108 0.00158248 0)
(-0.0639068 0.000550575 0)
(-0.0639166 -0.000486424 0)
(-0.0637395 -0.00152312 0)
(-0.0633764 -0.00255406 0)
(-0.0628286 -0.00357371 0)
(-0.0620987 -0.0045765 0)
(-0.06119 -0.0055568 0)
(-0.0601072 -0.00650897 0)
(-0.0588555 -0.00742733 0)
(-0.0574415 -0.00830622 0)
(-0.0558723 -0.00914 0)
(-0.0541564 -0.00992309 0)
(-0.052303 -0.01065 0)
(-0.0503222 -0.0113152 0)
(-0.0482253 -0.0119136 0)
(-0.0460241 -0.0124401 0)
(-0.0437313 -0.0128898 0)
(-0.0413607 -0.0132582 0)
(-0.0389263 -0.013541 0)
(-0.0364433 -0.0137345 0)
(-0.0339269 -0.0138352 0)
(-0.0313934 -0.0138404 0)
(-0.028859 -0.0137478 0)
(-0.0263404 -0.0135559 0)
(-0.0238544 -0.0132639 0)
(-0.0214178 -0.0128722 0)
(-0.0190474 -0.0123818 0)
(-0.0167595 -0.0117954 0)
(-0.0145701 -0.0111166 0)
(-0.0124942 -0.0103508 0)
(-0.0105463 -0.00950524 0)
(-0.00873952 -0.00858911 0)
(-0.00708579 -0.00761404 0)
(-0.00559534 -0.00659443 0)
(-0.00427657 -0.0055478 0)
(-0.00313562 -0.00449535 0)
(-0.00217604 -0.00346235 0)
(-0.0013981 -0.00247873 0)
(-0.000797996 -0.00157944 0)
(-0.000365808 -0.000804765 0)
(-8.52256e-05 -0.000200059 0)
(-0.000107292 0.000344296 0)
(-0.000457128 0.00122204 0)
(-0.000985598 0.00225401 0)
(-0.00170678 0.00339409 0)
(-0.00262736 0.0046012 0)
(-0.00374746 0.00583961 0)
(-0.00506313 0.00707883 0)
(-0.00656743 0.00829321 0)
(-0.00825114 0.00946148 0)
(-0.0101032 0.0105663 0)
(-0.012111 0.0115935 0)
(-0.0142608 0.0125323 0)
(-0.0165379 0.013374 0)
(-0.0189265 0.0141125 0)
(-0.0214105 0.0147431 0)
(-0.0239732 0.0152632 0)
(-0.0265978 0.0156713 0)
(-0.029267 0.015967 0)
(-0.0319639 0.016151 0)
(-0.0346715 0.0162248 0)
(-0.0373732 0.0161907 0)
(-0.0400525 0.0160514 0)
(-0.0426936 0.0158103 0)
(-0.045281 0.015471 0)
(-0.0477998 0.0150376 0)
(-0.0502357 0.0145146 0)
(-0.0525751 0.0139064 0)
(-0.0548052 0.013218 0)
(-0.0569139 0.0124544 0)
(-0.0588896 0.0116207 0)
(-0.060722 0.0107223 0)
(-0.0624013 0.00976449 0)
(-0.0639187 0.00875294 0)
(-0.0652661 0.00769326 0)
(-0.0664365 0.00659119 0)
(-0.0674238 0.00545257 0)
(-0.0682226 0.00428334 0)
(-0.0688287 0.00308952 0)
(-0.0692386 0.00187722 0)
(-0.0694502 0.000652638 0)
(-0.0694618 -0.000577936 0)
(-0.0692732 -0.00180814 0)
(-0.0688849 -0.00303151 0)
(-0.0682986 -0.00424155 0)
(-0.0675167 -0.00543168 0)
(-0.0665431 -0.00659526 0)
(-0.0653824 -0.00772564 0)
(-0.0640402 -0.00881614 0)
(-0.0625234 -0.00986009 0)
(-0.0608397 -0.0108509 0)
(-0.0589979 -0.0117819 0)
(-0.0570077 -0.0126466 0)
(-0.05488 -0.0134388 0)
(-0.0526264 -0.0141522 0)
(-0.0502596 -0.0147809 0)
(-0.0477931 -0.0153193 0)
(-0.0452412 -0.0157619 0)
(-0.042619 -0.0161039 0)
(-0.0399423 -0.0163408 0)
(-0.0372275 -0.0164687 0)
(-0.0344915 -0.0164844 0)
(-0.0317517 -0.0163851 0)
(-0.0290259 -0.0161692 0)
(-0.0263317 -0.015836 0)
(-0.0236872 -0.0153855 0)
(-0.02111 -0.0148194 0)
(-0.0186177 -0.0141403 0)
(-0.0162272 -0.0133528 0)
(-0.0139551 -0.0124629 0)
(-0.0118169 -0.0114787 0)
(-0.00982693 -0.0104106 0)
(-0.00799858 -0.00927154 0)
(-0.00634351 -0.00807742 0)
(-0.00487167 -0.00684739 0)
(-0.0035909 -0.00560434 0)
(-0.00250652 -0.00437527 0)
(-0.00162067 -0.00319176 0)
(-0.000931286 -0.00209018 0)
(-0.000429804 -0.00111188 0)
(-0.00010054 -0.000302711 0)
(-0.000122691 0.000470748 0)
(-0.000521426 0.00159343 0)
(-0.00111958 0.00286272 0)
(-0.00193059 0.00423258 0)
(-0.00295974 0.00566147 0)
(-0.00420523 0.00711288 0)
(-0.00566111 0.00855528 0)
(-0.00731849 0.00996188 0)
(-0.0091663 0.0113103 0)
(-0.0111918 0.0125819 0)
(-0.0133809 0.0137618 0)
(-0.0157183 0.0148379 0)
(-0.018188 0.0158011 0)
(-0.0207732 0.0166445 0)
(-0.0234564 0.017363 0)
(-0.02622 0.0179537 0)
(-0.029046 0.0184148 0)
(-0.0319163 0.0187461 0)
(-0.0348129 0.0189482 0)
(-0.037718 0.0190229 0)
(-0.0406141 0.0189727 0)
(-0.0434838 0.0188009 0)
(-0.0463105 0.0185111 0)
(-0.0490779 0.0181076 0)
(-0.0517704 0.0175951 0)
(-0.0543731 0.0169787 0)
(-0.0568716 0.0162636 0)
(-0.0592524 0.0154554 0)
(-0.0615027 0.01456 0)
(-0.0636108 0.0135833 0)
(-0.0655654 0.0125315 0)
(-0.0673564 0.0114108 0)
(-0.0689745 0.0102277 0)
(-0.0704114 0.00898872 0)
(-0.0716595 0.00770055 0)
(-0.0727124 0.00636997 0)
(-0.0735646 0.00500384 0)
(-0.0742116 0.00360918 0)
(-0.0746499 0.00219307 0)
(-0.0748768 0.000762706 0)
(-0.074891 -0.000674607 0)
(-0.074692 -0.00211148 0)
(-0.0742804 -0.00354043 0)
(-0.0736578 -0.00495391 0)
(-0.072827 -0.00634427 0)
(-0.0717919 -0.00770384 0)
(-0.0705572 -0.0090249 0)
(-0.069129 -0.0102997 0)
(-0.0675142 -0.0115205 0)
(-0.0657211 -0.0126797 0)
(-0.0637589 -0.0137695 0)
(-0.0616376 -0.0147826 0)
(-0.0593688 -0.0157115 0)
(-0.0569645 -0.0165492 0)
(-0.054438 -0.0172887 0)
(-0.0518036 -0.0179236 0)
(-0.0490762 -0.0184476 0)
(-0.0462716 -0.018855 0)
(-0.0434066 -0.0191408 0)
(-0.0404983 -0.0193004 0)
(-0.0375646 -0.0193301 0)
(-0.0346238 -0.0192268 0)
(-0.0316944 -0.0189887 0)
(-0.0287953 -0.0186147 0)
(-0.0259455 -0.0181051 0)
(-0.0231638 -0.0174616 0)
(-0.0204688 -0.0166873 0)
(-0.0178788 -0.0157871 0)
(-0.0154113 -0.014768 0)
(-0.0130831 -0.0136387 0)
(-0.0109103 -0.0124109 0)
(-0.00890733 -0.0110986 0)
(-0.00708759 -0.00971902 0)
(-0.00546267 -0.00829283 0)
(-0.00404219 -0.00684438 0)
(-0.00283335 -0.00540217 0)
(-0.00184015 -0.00399908 0)
(-0.00106231 -0.00267264 0)
(-0.000492514 -0.0014649 0)
(-0.000115525 -0.000421899 0)
(-0.000137696 0.000613692 0)
(-0.000584158 0.00201068 0)
(-0.00125065 0.00354315 0)
(-0.00215016 0.00516537 0)
(-0.00328664 0.00683561 0)
(-0.00465643 0.00851686 0)
(-0.00625159 0.0101768 0)
(-0.00806122 0.0117879 0)
(-0.0100724 0.0133267 0)
(-0.0122705 0.0147737 0)
(-0.0146399 0.0161131 0)
(-0.0171639 0.0173322 0)
(-0.0198249 0.0184212 0)
(-0.022605 0.0193724 0)
(-0.0254855 0.0201808 0)
(-0.0284476 0.0208429 0)
(-0.0314723 0.0213569 0)
(-0.0345406 0.0217226 0)
(-0.0376335 0.0219409 0)
(-0.0407324 0.0220136 0)
(-0.0438188 0.0219437 0)
(-0.0468747 0.0217347 0)
(-0.0498825 0.0213909 0)
(-0.0528254 0.0209173 0)
(-0.0556871 0.020319 0)
(-0.0584518 0.0196018 0)
(-0.0611046 0.0187719 0)
(-0.0636316 0.0178354 0)
(-0.0660193 0.0167991 0)
(-0.0682555 0.0156698 0)
(-0.0703284 0.0144545 0)
(-0.0722275 0.0131604 0)
(-0.0739432 0.0117948 0)
(-0.0754666 0.0103653 0)
(-0.0767901 0.00887945 0)
(-0.0779068 0.00734504 0)
(-0.078811 0.00576993 0)
(-0.079498 0.00416214 0)
(-0.0799641 0.00252978 0)
(-0.0802066 0.000881094 0)
(-0.080224 -0.000775566 0)
(-0.0800158 -0.00243174 0)
(-0.0795826 -0.00407888 0)
(-0.0789261 -0.00570833 0)
(-0.0780491 -0.00731135 0)
(-0.0769555 -0.00887918 0)
(-0.0756504 -0.010403 0)
(-0.07414 -0.0118739 0)
(-0.0724315 -0.013283 0)
(-0.0705335 -0.0146217 0)
(-0.0684554 -0.0158811 0)
(-0.066208 -0.0170528 0)
(-0.0638028 -0.0181283 0)
(-0.0612527 -0.0190994 0)
(-0.0585715 -0.0199584 0)
(-0.055774 -0.0206977 0)
(-0.0528758 -0.0213103 0)
(-0.0498934 -0.0217897 0)
(-0.0468443 -0.0221301 0)
(-0.0437464 -0.0223263 0)
(-0.0406185 -0.022374 0)
(-0.0374796 -0.0222698 0)
(-0.0343495 -0.0220114 0)
(-0.0312478 -0.0215978 0)
(-0.0281946 -0.021029 0)
(-0.0252099 -0.020307 0)
(-0.0223133 -0.0194353 0)
(-0.0195244 -0.018419 0)
(-0.0168619 -0.0172658 0)
(-0.0143442 -0.0159853 0)
(-0.0119884 -0.0145901 0)
(-0.00981084 -0.0130953 0)
(-0.00782644 -0.0115193 0)
(-0.00604856 -0.00988403 0)
(-0.00448868 -0.00821519 0)
(-0.00315592 -0.00654249 0)
(-0.00205619 -0.00489994 0)
(-0.00119089 -0.00332592 0)
(-0.000553861 -0.00186299 0)
(-0.000130164 -0.000557216 0)
(-0.000152319 0.00077268 0)
(-0.000645363 0.0024728 0)
(-0.00137885 0.00429407 0)
(-0.00236546 0.00619118 0)
(-0.00360793 0.00812243 0)
(-0.00510082 0.0100505 0)
(-0.00683419 0.0119426 0)
(-0.00879515 0.0137704 0)
(-0.0109688 0.0155099 0)
(-0.0133388 0.0171408 0)
(-0.0158877 0.0186467 0)
(-0.0185972 0.0200141 0)
(-0.0214485 0.0212328 0)
(-0.0244222 0.0222948 0)
(-0.0274984 0.0231946 0)
(-0.0306572 0.0239286 0)
(-0.0338786 0.0244951 0)
(-0.0371425 0.0248939 0)
(-0.0404291 0.0251259 0)
(-0.0437188 0.0251935 0)
(-0.0469924 0.0250999 0)
(-0.0502311 0.0248491 0)
(-0.0534166 0.024446 0)
(-0.0565313 0.0238961 0)
(-0.0595583 0.0232053 0)
(-0.0624813 0.02238 0)
(-0.0652848 0.0214273 0)
(-0.0679542 0.0203541 0)
(-0.0704758 0.019168 0)
(-0.0728366 0.0178766 0)
(-0.0750247 0.016488 0)
(-0.0770291 0.0150103 0)
(-0.0788397 0.0134517 0)
(-0.0804475 0.0118207 0)
(-0.0818444 0.010126 0)
(-0.0830234 0.00837634 0)
(-0.0839786 0.00658062 0)
(-0.084705 0.00474788 0)
(-0.0851988 0.00288732 0)
(-0.0854572 0.00100825 0)
(-0.0854786 -0.000879887 0)
(-0.0852625 -0.00276753 0)
(-0.0848093 -0.004645 0)
(-0.0841209 -0.00650253 0)
(-0.0832001 -0.00833024 0)
(-0.082051 -0.0101182 0)
(-0.0806786 -0.0118564 0)