/*--------------------------------*- C++ -*----------------------------------*\
| =========                 |                                                 |
| \\      /  F ield         | OpenFOAM: The Open Source CFD Toolbox           |
|  \\    /   O peration     | Version:  4.1                                   |
|   \\  /    A nd           | Web:      www.OpenFOAM.org                      |
|    \\/     M anipulation  |                                                 |
\*---------------------------------------------------------------------------*/
FoamFile
{
    version     2.0;
    format      ascii;
    class       volScalarField;
    location    "0.15";
    object      p;
}
// * * * * * * * * * * * * * * * * * * * * * * * * * * * * * * * * * * * * * //

dimensions      [1 -1 -2 0 0 0 0];

internalField   nonuniform List<scalar> 
3200
(
0.4
0.4
0.4
0.4
0.4
0.4
0.4
0.4
0.4
0.4
0.4
0.4
0.4
0.4
0.4
0.4
0.4
0.4
0.4
0.4
0.4
0.4
0.4
0.4
0.4
0.4
0.4
0.4
0.4
0.4
0.4
0.4
0.4
0.4
0.4
0.4
0.4
0.4
0.4
0.4
0.4
0.4
0.4
0.4
0.4
0.4
0.4
0.4
0.4
0.4
0.4
0.4
0.399999
0.399999
0.399999
0.399999
0.399999
0.399999
0.399999
0.399999
0.399999
0.399999
0.399999
0.399999
0.399999
0.399998
0.399998
0.399998
0.399998
0.399998
0.399998
0.399997
0.399997
0.399997
0.399997
0.399996
0.399996
0.399996
0.399995
0.399995
0.399995
0.399994
0.399994
0.399993
0.399992
0.399992
0.399991
0.399991
0.39999
0.399989
0.399988
0.399987
0.399986
0.399985
0.399984
0.399983
0.399981
0.39998
0.399978
0.399977
0.399975
0.399973
0.399971
0.399969
0.399967
0.399965
0.399962
0.399959
0.399956
0.399953
0.39995
0.399947
0.399943
0.399939
0.399935
0.39993
0.399926
0.399921
0.399915
0.39991
0.399904
0.399897
0.399891
0.399883
0.399876
0.399868
0.399859
0.399851
0.399841
0.399831
0.399821
0.39981
0.399798
0.399786
0.399773
0.399759
0.399744
0.399729
0.399713
0.399696
0.399679
0.39966
0.399641
0.39962
0.399598
0.399576
0.399552
0.399527
0.399501
0.399474
0.399445
0.399415
0.399384
0.399351
0.399317
0.399281
0.399244
0.399205
0.399164
0.399121
0.399077
0.399031
0.398982
0.398932
0.39888
0.398825
0.398769
0.39871
0.398648
0.398584
0.398518
0.398449
0.398378
0.398304
0.398227
0.398147
0.398065
0.397979
0.39789
0.397799
0.397704
0.397605
0.397504
0.397399
0.39729
0.397178
0.397062
0.396942
0.396819
0.396692
0.39656
0.396425
0.396286
0.396142
0.395994
0.395842
0.395685
0.395524
0.395359
0.395188
0.395013
0.394834
0.394649
0.39446
0.394266
0.394066
0.393862
0.393652
0.393438
0.393218
0.392993
0.392762
0.392526
0.392285
0.392038
0.391785
0.391527
0.391264
0.390994
0.390719
0.390438
0.390152
0.389859
0.389561
0.389257
0.388947
0.388631
0.388309
0.387981
0.387647
0.387307
0.386961
0.386609
0.386251
0.385887
0.385517
0.38514
0.384758
0.38437
0.383975
0.383575
0.383168
0.382755
0.382337
0.381912
0.381481
0.381044
0.380602
0.380153
0.379698
0.379238
0.378771
0.378299
0.377821
0.377337
0.376847
0.376351
0.37585
0.375343
0.374831
0.374312
0.373789
0.373259
0.372725
0.372185
0.371639
0.371088
0.370532
0.36997
0.369404
0.368832
0.368255
0.367673
0.367086
0.366494
0.365897
0.365296
0.364689
0.364078
0.363462
0.362842
0.362217
0.361587
0.360953
0.360315
0.359672
0.359025
0.358374
0.357719
0.357059
0.356396
0.355729
0.355057
0.354382
0.353703
0.353021
0.352335
0.351645
0.350952
0.350255
0.349554
0.348851
0.348144
0.347434
0.346721
0.346004
0.345285
0.344562
0.343837
0.343109
0.342378
0.341644
0.340908
0.340169
0.339427
0.338683
0.337936
0.337187
0.336436
0.335682
0.334926
0.334168
0.333408
0.332646
0.331881
0.331115
0.330347
0.329577
0.328805
0.328032
0.327256
0.32648
0.325701
0.324921
0.324139
0.323356
0.322572
0.321786
0.320999
0.320211
0.319421
0.31863
0.317839
0.317046
0.316252
0.315457
0.314661
0.313864
0.313066
0.312268
0.311469
0.310669
0.309868
0.309067
0.308265
0.307462
0.306659
0.305855
0.305051
0.304247
0.303442
0.302636
0.301831
0.301025
0.300219
0.299412
0.298606
0.297799
0.296992
0.296185
0.295378
0.294571
0.293764
0.292957
0.29215
0.291343
0.290537
0.28973
0.288924
0.288118
0.287312
0.286506
0.2857
0.284895
0.284091
0.283286
0.282482
0.281679
0.280875
0.280073
0.27927
0.278469
0.277667
0.276867
0.276067
0.275267
0.274468
0.27367
0.272872
0.272075
0.271279
0.270484
0.269689
0.268895
0.268101
0.267309
0.266517
0.265726
0.264936
0.264147
0.263359
0.262571
0.261785
0.260999
0.260215
0.259431
0.258648
0.257867
0.257086
0.256306
0.255527
0.25475
0.253973
0.253197
0.252423
0.25165
0.250877
0.250106
0.249336
0.248567
0.247799
0.247033
0.246267
0.245503
0.24474
0.243978
0.243217
0.242458
0.2417
0.240943
0.240187
0.239433
0.23868
0.237928
0.237177
0.236428
0.23568
0.234933
0.234188
0.233444
0.232701
0.23196
0.23122
0.230481
0.229744
0.229008
0.228274
0.227541
0.226809
0.226079
0.22535
0.224622
0.223896
0.223172
0.222448
0.221727
0.221006
0.220287
0.21957
0.218854
0.218139
0.217426
0.216715
0.216005
0.215296
0.214589
0.213883
0.213179
0.212476
0.211775
0.211075
0.210377
0.20968
0.208985
0.208292
0.207599
0.206909
0.20622
0.205532
0.204846
0.204162
0.203479
0.202797
0.202117
0.201439
0.200762
0.200087
0.199413
0.198741
0.198071
0.197402
0.196734
0.196068
0.195404
0.194741
0.19408
0.19342
0.192762
0.192106
0.191451
0.190797
0.190145
0.189495
0.188846
0.188199
0.187554
0.18691
0.186267
0.185627
0.184987
0.18435
0.183714
0.183079
0.182446
0.181815
0.181185
0.180557
0.17993
0.179305
0.178682
0.17806
0.17744
0.176821
0.176204
0.175588
0.174975
0.174362
0.173751
0.173142
0.172534
0.171928
0.171324
0.170721
0.17012
0.16952
0.168922
0.168325
0.16773
0.167136
0.166544
0.165954
0.165365
0.164778
0.164192
0.163608
0.163026
0.162445
0.161865
0.161288
0.160711
0.160137
0.159563
0.158992
0.158422
0.157853
0.157286
0.156721
0.156157
0.155595
0.155034
0.154475
0.153917
0.153361
0.152807
0.152253
0.151702
0.151152
0.150604
0.150057
0.149511
0.148967
0.148425
0.147884
0.147345
0.146807
0.146271
0.145736
0.145203
0.144671
0.144141
0.143613
0.143085
0.14256
0.142036
0.141513
0.140992
0.140472
0.139954
0.139437
0.138922
0.138408
0.137896
0.137386
0.136876
0.136369
0.135862
0.135358
0.134854
0.134352
0.133852
0.133353
0.132856
0.13236
0.131865
0.131372
0.13088
0.13039
0.129902
0.129414
0.128929
0.128444
0.127961
0.12748
0.127
0.126521
0.126044
0.125568
0.125094
0.124621
0.124149
0.123679
0.123211
0.122743
0.122278
0.121813
0.12135
0.120889
0.120428
0.11997
0.119512
0.119056
0.118602
0.118148
0.117697
0.117246
0.116797
0.116349
0.115903
0.115458
0.115015
0.114572
0.114131
0.113692
0.113254
0.112817
0.112382
0.111948
0.111515
0.111084
0.110654
0.110225
0.109798
0.109372
0.108947
0.108524
0.108102
0.107681
0.107262
0.106843
0.106427
0.106011
0.105597
0.105184
0.104773
0.104363
0.103954
0.103546
0.10314
0.102735
0.102331
0.101929
0.101528
0.101128
0.100729
0.100332
0.0999362
0.0995414
0.099148
0.0987558
0.0983648
0.0979751
0.0975867
0.0971995
0.0968136
0.0964289
0.0960455
0.0956633
0.0952824
0.0949027
0.0945242
0.0941469
0.0937709
0.0933962
0.0930226
0.0926503
0.0922791
0.0919092
0.0915405
0.091173
0.0908068
0.0904417
0.0900778
0.0897152
0.0893537
0.0889934
0.0886343
0.0882764
0.0879197
0.0875642
0.0872098
0.0868566
0.0865046
0.0861538
0.0858041
0.0854556
0.0851083
0.0847621
0.0844171
0.0840732
0.0837305
0.0833889
0.0830485
0.0827093
0.0823711
0.0820341
0.0816983
0.0813635
0.0810299
0.0806975
0.0803661
0.0800359
0.0797068
0.0793788
0.0790519
0.0787262
0.0784015
0.078078
0.0777555
0.0774342
0.0771139
0.0767948
0.0764767
0.0761597
0.0758438
0.075529
0.0752153
0.0749027
0.0745911
0.0742806
0.0739712
0.0736628
0.0733555
0.0730493
0.0727441
0.07244
0.0721369
0.0718349
0.0715339
0.071234
0.0709351
0.0706373
0.0703405
0.0700447
0.06975
0.0694563
0.0691636
0.0688719
0.0685813
0.0682917
0.0680031
0.0677155
0.067429
0.0671434
0.0668589
0.0665753
0.0662928
0.0660112
0.0657306
0.0654511
0.0651725
0.0648949
0.0646183
0.0643427
0.0640681
0.0637944
0.0635217
0.06325
0.0629792
0.0627095
0.0624406
0.0621728
0.0619059
0.06164
0.061375
0.0611109
0.0608478
0.0605857
0.0603245
0.0600643
0.0598049
0.0595466
0.0592891
0.0590326
0.058777
0.0585223
0.0582686
0.0580158
0.0577639
0.0575129
0.0572628
0.0570137
0.0567654
0.0565181
0.0562716
0.0560261
0.0557814
0.0555377
0.0552948
0.0550529
0.0548118
0.0545716
0.0543323
0.0540938
0.0538563
0.0536196
0.0533838
0.0531489
0.0529148
0.0526816
0.0524493
0.0522178
0.0519872
0.0517575
0.0515286
0.0513005
0.0510733
0.050847
0.0506214
0.0503968
0.0501729
0.04995
0.0497278
0.0495065
0.049286
0.0490663
0.0488475
0.0486294
0.0484122
0.0481959
0.0479803
0.0477655
0.0475516
0.0473385
0.0471261
0.0469146
0.0467039
0.046494
0.0462848
0.0460765
0.045869
0.0456622
0.0454563
0.0452511
0.0450467
0.0448431
0.0446403
0.0444382
0.0442369
0.0440364
0.0438367
0.0436377
0.0434395
0.043242
0.0430453
0.0428494
0.0426542
0.0424598
0.0422661
0.0420732
0.041881
0.0416896
0.0414989
0.041309
0.0411198
0.0409313
0.0407435
0.0405565
0.0403703
0.0401847
0.0399999
0.0398158
0.0396324
0.0394497
0.0392678
0.0390865
0.038906
0.0387262
0.0385471
0.0383687
0.0381909
0.0380139
0.0378376
0.037662
0.0374871
0.0373129
0.0371394
0.0369665
0.0367944
0.0366229
0.0364521
0.036282
0.0361126
0.0359438
0.0357757
0.0356083
0.0354415
0.0352755
0.03511
0.0349453
0.0347812
0.0346178
0.034455
0.0342929
0.0341314
0.0339706
0.0338104
0.0336509
0.033492
0.0333338
0.0331762
0.0330192
0.0328629
0.0327072
0.0325522
0.0323977
0.0322439
0.0320908
0.0319382
0.0317863
0.031635
0.0314843
0.0313342
0.0311848
0.0310359
0.0308877
0.0307401
0.030593
0.0304466
0.0303008
0.0301556
0.030011
0.029867
0.0297236
0.0295807
0.0294385
0.0292968
0.0291558
0.0290153
0.0288754
0.0287361
0.0285974
0.0284592
0.0283216
0.0281846
0.0280482
0.0279124
0.0277771
0.0276423
0.0275082
0.0273746
0.0272415
0.0271091
0.0269771
0.0268458
0.0267149
0.0265847
0.026455
0.0263258
0.0261972
0.0260691
0.0259416
0.0258146
0.0256881
0.0255622
0.0254368
0.025312
0.0251877
0.0250639
0.0249406
0.0248179
0.0246957
0.024574
0.0244529
0.0243322
0.0242121
0.0240925
0.0239734
0.0238548
0.0237367
0.0236192
0.0235021
0.0233856
0.0232695
0.023154
0.0230389
0.0229244
0.0228103
0.0226968
0.0225837
0.0224711
0.0223591
0.0222475
0.0221364
0.0220258
0.0219156
0.021806
0.0216968
0.0215881
0.0214799
0.0213721
0.0212649
0.0211581
0.0210517
0.0209459
0.0208405
0.0207355
0.0206311
0.0205271
0.0204235
0.0203204
0.0202178
0.0201156
0.0200139
0.0199126
0.0198118
0.0197115
0.0196115
0.0195121
0.019413
0.0193144
0.0192163
0.0191186
0.0190213
0.0189245
0.0188281
0.0187321
0.0186366
0.0185415
0.0184468
0.0183526
0.0182587
0.0181653
0.0180724
0.0179798
0.0178877
0.017796
0.0177047
0.0176138
0.0175233
0.0174332
0.0173436
0.0172544
0.0171655
0.0170771
0.0169891
0.0169015
0.0168142
0.0167274
0.016641
0.016555
0.0164693
0.0163841
0.0162993
0.0162148
0.0161308
0.0160471
0.0159638
0.0158809
0.0157984
0.0157163
0.0156345
0.0155531
0.0154722
0.0153915
0.0153113
0.0152314
0.0151519
0.0150728
0.0149941
0.0149157
0.0148377
0.01476
0.0146827
0.0146058
0.0145293
0.0144531
0.0143772
0.0143017
0.0142266
0.0141518
0.0140774
0.0140033
0.0139296
0.0138563
0.0137833
0.0137106
0.0136383
0.0135663
0.0134946
0.0134233
0.0133524
0.0132818
0.0132115
0.0131415
0.0130719
0.0130027
0.0129337
0.0128651
0.0127968
0.0127289
0.0126613
0.012594
0.012527
0.0124603
0.012394
0.012328
0.0122623
0.012197
0.0121319
0.0120672
0.0120027
0.0119386
0.0118749
0.0118114
0.0117482
0.0116853
0.0116228
0.0115605
0.0114986
0.0114369
0.0113756
0.0113146
0.0112538
0.0111934
0.0111333
0.0110734
0.0110139
0.0109546
0.0108956
0.010837
0.0107786
0.0107205
0.0106627
0.0106052
0.010548
0.010491
0.0104344
0.010378
0.0103219
0.0102661
0.0102106
0.0101553
0.0101003
0.0100456
0.00999122
0.00993707
0.00988319
0.00982959
0.00977625
0.00972318
0.00967038
0.00961785
0.00956559
0.00951359
0.00946185
0.00941038
0.00935916
0.00930821
0.00925752
0.00920709
0.00915692
0.009107
0.00905734
0.00900793
0.00895877
0.00890987
0.00886122
0.00881282
0.00876467
0.00871677
0.00866911
0.00862171
0.00857454
0.00852762
0.00848095
0.00843451
0.00838832
0.00834237
0.00829666
0.00825119
0.00820595
0.00816095
0.00811619
0.00807166
0.00802737
0.0079833
0.00793947
0.00789587
0.0078525
0.00780936
0.00776645
0.00772376
0.0076813
0.00763907
0.00759706
0.00755528
0.00751371
0.00747237
0.00743125
0.00739035
0.00734967
0.00730921
0.00726896
0.00722893
0.00718912
0.00714952
0.00711014
0.00707097
0.00703201
0.00699326
0.00695473
0.0069164
0.00687829
0.00684038
0.00680268
0.00676519
0.0067279
0.00669082
0.00665394
0.00661727
0.00658079
0.00654453
0.00650846
0.00647259
0.00643693
0.00640146
0.0063662
0.00633113
0.00629625
0.00626158
0.0062271
0.00619282
0.00615873
0.00612483
0.00609113
0.00605763
0.00602431
0.00599119
0.00595825
0.00592551
0.00589296
0.0058606
0.00582843
0.00579644
0.00576465
0.00573304
0.00570162
0.00567038
0.00563933
0.00560847
0.00557779
0.0055473
0.00551699
0.00548687
0.00545693
0.00542717
0.0053976
0.00536821
0.005339
0.00530998
0.00528114
0.00525248
0.005224
0.00519571
0.00516759
0.00513966
0.00511191
0.00508435
0.00505696
0.00502976
0.00500274
0.0049759
0.00494925
0.00492278
0.00489649
0.00487038
0.00484446
0.00481872
0.00479317
0.0047678
0.00474262
0.00471763
0.00469282
0.0046682
0.00464377
0.00461953
0.00459549
0.00457163
0.00454797
0.0045245
0.00450123
0.00447816
0.00445528
0.00443261
0.00441014
0.00438787
0.00436581
0.00434396
0.00432232
0.00430089
0.00427968
0.00425868
0.00423791
0.00421736
0.00419703
0.00417694
0.00415708
0.00413745
0.00411807
0.00409892
0.00408003
0.00406139
0.004043
0.00402487
0.004007
0.0039894
0.00397208
0.00395503
0.00393826
0.00392177
0.00390558
0.00388968
0.00387408
0.00385878
0.00384378
0.0038291
0.00381473
0.00380068
0.00378695
0.00377354
0.00376046
0.0037477
0.00373527
0.00372317
0.0037114
0.00369996
0.00368884
0.00367805
0.00366758
0.00365743
0.00364759
0.00363806
0.00362883
0.00361989
0.00361124
0.00360286
0.00359476
0.00358691
0.00357931
0.00357194
0.0035648
0.00355788
0.00355115
0.00354461
0.00353824
0.00353204
0.00352599
0.00352008
0.0035143
0.00350864
0.00350308
0.00349762
0.00349224
0.00348695
0.00348172
0.00347656
0.00347146
0.0034664
0.00346139
0.00345642
0.00345149
0.00344659
0.00344172
0.00343687
0.00343206
0.00342726
0.00342249
0.00341774
0.00341301
0.0034083
0.00340361
0.00339895
0.0033943
0.00338968
0.00338508
0.0033805
0.00337594
0.00337141
0.00336691
0.00336243
0.00335797
0.00335355
0.00334915
0.00334478
0.00334044
0.00333612
0.00333184
0.00332759
0.00332338
0.00331919
0.00331504
0.00331091
0.00330683
0.00330277
0.00329875
0.00329477
0.00329082
0.0032869
0.00328302
0.00327918
0.00327537
0.00327159
0.00326785
0.00326415
0.00326048
0.00325685
0.00325326
0.0032497
0.00324617
0.00324268
0.00323923
0.00323581
0.00323243
0.00322909
0.00322578
0.0032225
0.00321926
0.00321605
0.00321288
0.00320975
0.00320665
0.00320358
0.00320055
0.00319755
0.00319459
0.00319166
0.00318876
0.0031859
0.00318307
0.00318027
0.00317751
0.00317477
0.00317208
0.00316941
0.00316677
0.00316417
0.0031616
0.00315906
0.00315655
0.00315408
0.00315163
0.00314922
0.00314683
0.00314448
0.00314215
0.00313986
0.0031376
0.00313536
0.00313316
0.00313098
0.00312883
0.00312671
0.00312462
0.00312256
0.00312053
0.00311852
0.00311654
0.00311459
0.00311267
0.00311077
0.0031089
0.00310706
0.00310524
0.00310345
0.00310169
0.00309995
0.00309824
0.00309656
0.00309489
0.00309326
0.00309165
0.00309006
0.0030885
0.00308697
0.00308546
0.00308397
0.00308251
0.00308107
0.00307965
0.00307826
0.00307689
0.00307554
0.00307422
0.00307292
0.00307164
0.00307039
0.00306916
0.00306795
0.00306676
0.00306559
0.00306445
0.00306332
0.00306222
0.00306114
0.00306008
0.00305904
0.00305802
0.00305702
0.00305605
0.00305509
0.00305415
0.00305323
0.00305233
0.00305146
0.0030506
0.00304976
0.00304893
0.00304813
0.00304735
0.00304658
0.00304583
0.00304511
0.00304439
0.0030437
0.00304303
0.00304237
0.00304173
0.0030411
0.0030405
0.00303991
0.00303933
0.00303878
0.00303824
0.00303771
0.0030372
0.00303671
0.00303624
0.00303577
0.00303533
0.0030349
0.00303448
0.00303408
0.0030337
0.00303333
0.00303298
0.00303264
0.00303231
0.003032
0.0030317
0.00303142
0.00303115
0.0030309
0.00303066
0.00303043
0.00303022
0.00303003
0.00302984
0.00302967
0.00302952
0.00302938
0.00302925
0.00302913
0.00302903
0.00302894
0.00302886
0.0030288
0.00302875
0.00302871
0.00302869
0.00302868
0.00302868
0.00302869
0.00302871
0.00302875
0.0030288
0.00302886
0.00302894
0.00302903
0.00302913
0.00302925
0.00302938
0.00302952
0.00302967
0.00302984
0.00303003
0.00303022
0.00303043
0.00303066
0.0030309
0.00303115
0.00303142
0.0030317
0.003032
0.00303231
0.00303264
0.00303298
0.00303333
0.0030337
0.00303408
0.00303448
0.0030349
0.00303533
0.00303577
0.00303624
0.00303671
0.0030372
0.00303771
0.00303824
0.00303878
0.00303933
0.00303991
0.0030405
0.0030411
0.00304173
0.00304237
0.00304303
0.0030437
0.00304439
0.00304511
0.00304583
0.00304658
0.00304735
0.00304813
0.00304893
0.00304976
0.0030506
0.00305146
0.00305233
0.00305323
0.00305415
0.00305509
0.00305605
0.00305702
0.00305802
0.00305904
0.00306008
0.00306114
0.00306222
0.00306332
0.00306445
0.00306559
0.00306676
0.00306795
0.00306916
0.00307039
0.00307164
0.00307292
0.00307422
0.00307554
0.00307689
0.00307826
0.00307965
0.00308107
0.00308251
0.00308397
0.00308546
0.00308697
0.0030885
0.00309006
0.00309165
0.00309326
0.00309489
0.00309656
0.00309824
0.00309995
0.00310169
0.00310345
0.00310524
0.00310706
0.0031089
0.00311077
0.00311267
0.00311459
0.00311654
0.00311852
0.00312053
0.00312256
0.00312462
0.00312671
0.00312883
0.00313098
0.00313316
0.00313536
0.0031376
0.00313986
0.00314215
0.00314448
0.00314683
0.00314922
0.00315163
0.00315408
0.00315655
0.00315906
0.0031616
0.00316417
0.00316677
0.00316941
0.00317208
0.00317477
0.00317751
0.00318027
0.00318307
0.0031859
0.00318876
0.00319166
0.00319459
0.00319755
0.00320055
0.00320358
0.00320665
0.00320975
0.00321288
0.00321605
0.00321926
0.0032225
0.00322578
0.00322909
0.00323243
0.00323581
0.00323923
0.00324268
0.00324617
0.0032497
0.00325326
0.00325685
0.00326048
0.00326415
0.00326785
0.00327159
0.00327537
0.00327918
0.00328302
0.0032869
0.00329082
0.00329477
0.00329875
0.00330277
0.00330683
0.00331091
0.00331504
0.00331919
0.00332338
0.00332759
0.00333184
0.00333612
0.00334044
0.00334478
0.00334915
0.00335355
0.00335797
0.00336243
0.00336691
0.00337141
0.00337594
0.0033805
0.00338508
0.00338968
0.0033943
0.00339895
0.00340361
0.0034083
0.00341301
0.00341774
0.00342249
0.00342726
0.00343206
0.00343687
0.00344172
0.00344659
0.00345149
0.00345642
0.00346139
0.0034664
0.00347146
0.00347656
0.00348172
0.00348695
0.00349224
0.00349762
0.00350308
0.00350864
0.0035143
0.00352008
0.00352599
0.00353204
0.00353824
0.00354461
0.00355115
0.00355788
0.0035648
0.00357194
0.00357931
0.00358691
0.00359476
0.00360286
0.00361124
0.00361989
0.00362883
0.00363806
0.00364759
0.00365743
0.00366758
0.00367805
0.00368884
0.00369996
0.0037114
0.00372317
0.00373527
0.0037477
0.00376046
0.00377354
0.00378695
0.00380068
0.00381473
0.0038291
0.00384378
0.00385878
0.00387408
0.00388968
0.00390558
0.00392177
0.00393826
0.00395503
0.00397208
0.0039894
0.004007
0.00402487
0.004043
0.00406139
0.00408003
0.00409892
0.00411807
0.00413745
0.00415708
0.00417694
0.00419703
0.00421736
0.00423791
0.00425868
0.00427968
0.00430089
0.00432232
0.00434396
0.00436581
0.00438787
0.00441014
0.00443261
0.00445528
0.00447816
0.00450123
0.0045245
0.00454797
0.00457163
0.00459549
0.00461953
0.00464377
0.0046682
0.00469282
0.00471763
0.00474262
0.0047678
0.00479317
0.00481872
0.00484446
0.00487038
0.00489649
0.00492278
0.00494925
0.0049759
0.00500274
0.00502976
0.00505696
0.00508435
0.00511191
0.00513966
0.00516759
0.00519571
0.005224
0.00525248
0.00528114
0.00530998
0.005339
0.00536821
0.0053976
0.00542717
0.00545693
0.00548687
0.00551699
0.0055473
0.00557779
0.00560847
0.00563933
0.00567038
0.00570162
0.00573304
0.00576465
0.00579644
0.00582843
0.0058606
0.00589296
0.00592551
0.00595825
0.00599119
0.00602431
0.00605763
0.00609113
0.00612483
0.00615873
0.00619282
0.0062271
0.00626158
0.00629625
0.00633113
0.0063662
0.00640146
0.00643693
0.00647259
0.00650846
0.00654453
0.00658079
0.00661727
0.00665394
0.00669082
0.0067279
0.00676519
0.00680268
0.00684038
0.00687829
0.0069164
0.00695473
0.00699326
0.00703201
0.00707097
0.00711014
0.00714952
0.00718912
0.00722893
0.00726896
0.00730921
0.00734967
0.00739035
0.00743125
0.00747237
0.00751371
0.00755528
0.00759706
0.00763907
0.0076813
0.00772376
0.00776645
0.00780936
0.0078525
0.00789587
0.00793947
0.0079833
0.00802737
0.00807166
0.00811619
0.00816095
0.00820595
0.00825119
0.00829666
0.00834237
0.00838832
0.00843451
0.00848095
0.00852762
0.00857454
0.00862171
0.00866911
0.00871677
0.00876467
0.00881282
0.00886122
0.00890987
0.00895877
0.00900793
0.00905734
0.009107
0.00915692
0.00920709
0.00925752
0.00930821
0.00935916
0.00941038
0.00946185
0.00951359
0.00956559
0.00961785
0.00967038
0.00972318
0.00977625
0.00982959
0.00988319
0.00993707
0.00999122
0.0100456
0.0101003
0.0101553
0.0102106
0.0102661
0.0103219
0.010378
0.0104344
0.010491
0.010548
0.0106052
0.0106627
0.0107205
0.0107786
0.010837
0.0108956
0.0109546
0.0110139
0.0110734
0.0111333
0.0111934
0.0112538
0.0113146
0.0113756
0.0114369
0.0114986
0.0115605
0.0116228
0.0116853
0.0117482
0.0118114
0.0118749
0.0119386
0.0120027
0.0120672
0.0121319
0.012197
0.0122623
0.012328
0.012394
0.0124603
0.012527
0.012594
0.0126613
0.0127289
0.0127968
0.0128651
0.0129337
0.0130027
0.0130719
0.0131415
0.0132115
0.0132818
0.0133524
0.0134233
0.0134946
0.0135663
0.0136383
0.0137106
0.0137833
0.0138563
0.0139296
0.0140033
0.0140774
0.0141518
0.0142266
0.0143017
0.0143772
0.0144531
0.0145293
0.0146058
0.0146827
0.01476
0.0148377
0.0149157
0.0149941
0.0150728
0.0151519
0.0152314
0.0153113
0.0153915
0.0154722
0.0155531
0.0156345
0.0157163
0.0157984
0.0158809
0.0159638
0.0160471
0.0161308
0.0162148
0.0162993
0.0163841
0.0164693
0.016555
0.016641
0.0167274
0.0168142
0.0169015
0.0169891
0.0170771
0.0171655
0.0172544
0.0173436
0.0174332
0.0175233
0.0176138
0.0177047
0.017796
0.0178877
0.0179798
0.0180724
0.0181653
0.0182587
0.0183526
0.0184468
0.0185415
0.0186366
0.0187321
0.0188281
0.0189245
0.0190213
0.0191186
0.0192163
0.0193144
0.019413
0.0195121
0.0196115
0.0197115
0.0198118
0.0199126
0.0200139
0.0201156
0.0202178
0.0203204
0.0204235
0.0205271
0.0206311
0.0207355
0.0208405
0.0209459
0.0210517
0.0211581
0.0212649
0.0213721
0.0214799
0.0215881
0.0216968
0.021806
0.0219156
0.0220258
0.0221364
0.0222475
0.0223591
0.0224711
0.0225837
0.0226968
0.0228103
0.0229244
0.0230389
0.023154
0.0232695
0.0233856
0.0235021
0.0236192
0.0237367
0.0238548
0.0239734
0.0240925
0.0242121
0.0243322
0.0244529
0.024574
0.0246957
0.0248179
0.0249406
0.0250639
0.0251877
0.025312
0.0254368
0.0255622
0.0256881
0.0258146
0.0259416
0.0260691
0.0261972
0.0263258
0.026455
0.0265847
0.0267149
0.0268458
0.0269771
0.0271091
0.0272415
0.0273746
0.0275082
0.0276423
0.0277771
0.0279124
0.0280482
0.0281846
0.0283216
0.0284592
0.0285974
0.0287361
0.0288754
0.0290153
0.0291558
0.0292968
0.0294385
0.0295807
0.0297236
0.029867
0.030011
0.0301556
0.0303008
0.0304466
0.030593
0.0307401
0.0308877
0.0310359
0.0311848
0.0313342
0.0314843
0.031635
0.0317863
0.0319382
0.0320908
0.0322439
0.0323977
0.0325522
0.0327072
0.0328629
0.0330192
0.0331762
0.0333338
0.033492
0.0336509
0.0338104
0.0339706
0.0341314
0.0342929
0.034455
0.0346178
0.0347812
0.0349453
0.03511
0.0352755
0.0354415
0.0356083
0.0357757
0.0359438
0.0361126
0.036282
0.0364521
0.0366229
0.0367944
0.0369665
0.0371394
0.0373129
0.0374871
0.037662
0.0378376
0.0380139
0.0381909
0.0383687
0.0385471
0.0387262
0.038906
0.0390865
0.0392678
0.0394497
0.0396324
0.0398158
0.0399999
0.0401847
0.0403703
0.0405565
0.0407435
0.0409313
0.0411198
0.041309
0.0414989
0.0416896
0.041881
0.0420732
0.0422661
0.0424598
0.0426542
0.0428494
0.0430453
0.043242
0.0434395
0.0436377
0.0438367
0.0440364
0.0442369
0.0444382
0.0446403
0.0448431
0.0450467
0.0452511
0.0454563
0.0456622
0.045869
0.0460765
0.0462848
0.046494
0.0467039
0.0469146
0.0471261
0.0473385
0.0475516
0.0477655
0.0479803
0.0481959
0.0484122
0.0486294
0.0488475
0.0490663
0.049286
0.0495065
0.0497278
0.04995
0.0501729
0.0503968
0.0506214
0.050847
0.0510733
0.0513005
0.0515286
0.0517575
0.0519872
0.0522178
0.0524493
0.0526816
0.0529148
0.0531489
0.0533838
0.0536196
0.0538563
0.0540938
0.0543323
0.0545716
0.0548118
0.0550529
0.0552948
0.0555377
0.0557814
0.0560261
0.0562716
0.0565181
0.0567654
0.0570137
0.0572628
0.0575129
0.0577639
0.0580158
0.0582686
0.0585223
0.058777
0.0590326
0.0592891
0.0595466
0.0598049
0.0600643
0.0603245
0.0605857
0.0608478
0.0611109
0.061375
0.06164
0.0619059
0.0621728
0.0624406
0.0627095
0.0629792
0.06325
0.0635217
0.0637944
0.0640681
0.0643427
0.0646183
0.0648949
0.0651725
0.0654511
0.0657306
0.0660112
0.0662928
0.0665753
0.0668589
0.0671434
0.067429
0.0677155
0.0680031
0.0682917
0.0685813
0.0688719
0.0691636
0.0694563
0.06975
0.0700447
0.0703405
0.0706373
0.0709351
0.071234
0.0715339
0.0718349
0.0721369
0.07244
0.0727441
0.0730493
0.0733555
0.0736628
0.0739712
0.0742806
0.0745911
0.0749027
0.0752153
0.075529
0.0758438
0.0761597
0.0764767
0.0767948
0.0771139
0.0774342
0.0777555
0.078078
0.0784015
0.0787262
0.0790519
0.0793788
0.0797068
0.0800359
0.0803661
0.0806975
0.0810299
0.0813635
0.0816983
0.0820341
0.0823711
0.0827093
0.0830485
0.0833889
0.0837305
0.0840732
0.0844171
0.0847621
0.0851083
0.0854556
0.0858041
0.0861538
0.0865046
0.0868566
0.0872098
0.0875642
0.0879197
0.0882764
0.0886343
0.0889934
0.0893537
0.0897152
0.0900778
0.0904417
0.0908068
0.091173
0.0915405
0.0919092
0.0922791
0.0926503
0.0930226
0.0933962
0.0937709
0.0941469
0.0945242
0.0949027
0.0952824
0.0956633
0.0960455
0.0964289
0.0968136
0.0971995
0.0975867
0.0979751
0.0983648
0.0987558
0.099148
0.0995414
0.0999362
0.100332
0.100729
0.101128
0.101528
0.101929
0.102331
0.102735
0.10314
0.103546
0.103954
0.104363
0.104773
0.105184
0.105597
0.106011
0.106427
0.106843
0.107262
0.107681
0.108102
0.108524
0.108947
0.109372
0.109798
0.110225
0.110654
0.111084
0.111515
0.111948
0.112382
0.112817
0.113254
0.113692
0.114131
0.114572
0.115015
0.115458
0.115903
0.116349
0.116797
0.117246
0.117697
0.118148
0.118602
0.119056
0.119512
0.11997
0.120428
0.120889
0.12135
0.121813
0.122278
0.122743
0.123211
0.123679
0.124149
0.124621
0.125094
0.125568
0.126044
0.126521
0.127
0.12748
0.127961
0.128444
0.128929
0.129414
0.129902
0.13039
0.13088
0.131372
0.131865
0.13236
0.132856
0.133353
0.133852
0.134352
0.134854
0.135358
0.135862
0.136369
0.136876
0.137386
0.137896
0.138408
0.138922
0.139437
0.139954
0.140472
0.140992
0.141513
0.142036
0.14256
0.143085
0.143613
0.144141
0.144671
0.145203
0.145736
0.146271
0.146807
0.147345
0.147884
0.148425
0.148967
0.149511
0.150057
0.150604
0.151152
0.151702
0.152253
0.152807
0.153361
0.153917
0.154475
0.155034
0.155595
0.156157
0.156721
0.157286
0.157853
0.158422
0.158992
0.159563
0.160137
0.160711
0.161288
0.161865
0.162445
0.163026
0.163608
0.164192
0.164778
0.165365
0.165954
0.166544
0.167136
0.16773
0.168325
0.168922
0.16952
0.17012
0.170721
0.171324
0.171928
0.172534
0.173142
0.173751
0.174362
0.174975
0.175588
0.176204
0.176821
0.17744
0.17806
0.178682
0.179305
0.17993
0.180557
0.181185
0.181815
0.182446
0.183079
0.183714
0.18435
0.184987
0.185627
0.186267
0.18691
0.187554
0.188199
0.188846
0.189495
0.190145
0.190797
0.191451
0.192106
0.192762
0.19342
0.19408
0.194741
0.195404
0.196068
0.196734
0.197402
0.198071
0.198741
0.199413
0.200087
0.200762
0.201439
0.202117
0.202797
0.203479
0.204162
0.204846
0.205532
0.20622
0.206909
0.207599
0.208292
0.208985
0.20968
0.210377
0.211075
0.211775
0.212476
0.213179
0.213883
0.214589
0.215296
0.216005
0.216715
0.217426
0.218139
0.218854
0.21957
0.220287
0.221006
0.221727
0.222448
0.223172
0.223896
0.224622
0.22535
0.226079
0.226809
0.227541
0.228274
0.229008
0.229744
0.230481
0.23122
0.23196
0.232701
0.233444
0.234188
0.234933
0.23568
0.236428
0.237177
0.237928
0.23868
0.239433
0.240187
0.240943
0.2417
0.242458
0.243217
0.243978
0.24474
0.245503
0.246267
0.247033
0.247799
0.248567
0.249336
0.250106
0.250877
0.25165
0.252423
0.253197
0.253973
0.25475
0.255527
0.256306
0.257086
0.257867
0.258648
0.259431
0.260215
0.260999
0.261785
0.262571
0.263359
0.264147
0.264936
0.265726
0.266517
0.267309
0.268101
0.268895
0.269689
0.270484
0.271279
0.272075
0.272872
0.27367
0.274468
0.275267
0.276067
0.276867
0.277667
0.278469
0.27927
0.280073
0.280875
0.281679
0.282482
0.283286
0.284091
0.284895
0.2857
0.286506
0.287312
0.288118
0.288924
0.28973
0.290537
0.291343
0.29215
0.292957
0.293764
0.294571
0.295378
0.296185
0.296992
0.297799
0.298606
0.299412
0.300219
0.301025
0.301831
0.302636
0.303442
0.304247
0.305051
0.305855
0.306659
0.307462
0.308265
0.309067
0.309868
0.310669
0.311469
0.312268
0.313066
0.313864
0.314661
0.315457
0.316252
0.317046
0.317839
0.31863
0.319421
0.320211
0.320999
0.321786
0.322572
0.323356
0.324139
0.324921
0.325701
0.32648
0.327256
0.328032
0.328805
0.329577
0.330347
0.331115
0.331881
0.332646
0.333408
0.334168
0.334926
0.335682
0.336436
0.337187
0.337936
0.338683
0.339427
0.340169
0.340908
0.341644
0.342378
0.343109
0.343837
0.344562
0.345285
0.346004
0.346721
0.347434
0.348144
0.348851
0.349554
0.350255
0.350952
0.351645
0.352335
0.353021
0.353703
0.354382
0.355057
0.355729
0.356396
0.357059
0.357719
0.358374
0.359025
0.359672
0.360315
0.360953
0.361587
0.362217
0.362842
0.363462
0.364078
0.364689
0.365296
0.365897
0.366494
0.367086
0.367673
0.368255
0.368832
0.369404
0.36997
0.370532
0.371088
0.371639
0.372185
0.372725
0.373259
0.373789
0.374312
0.374831
0.375343
0.37585
0.376351
0.376847
0.377337
0.377821
0.378299
0.378771
0.379238
0.379698
0.380153
0.380602
0.381044
0.381481
0.381912
0.382337
0.382755
0.383168
0.383575
0.383975
0.38437
0.384758
0.38514
0.385517
0.385887
0.386251
0.386609
0.386961
0.387307
0.387647
0.387981
0.388309
0.388631
0.388947
0.389257
0.389561
0.389859
0.390152
0.390438
0.390719
0.390994
0.391264
0.391527
0.391785
0.392038
0.392285
0.392526
0.392762
0.392993
0.393218
0.393438
0.393652
0.393862
0.394066
0.394266
0.39446
0.394649
0.394834
0.395013
0.395188
0.395359
0.395524
0.395685
0.395842