/*--------------------------------*- C++ -*----------------------------------*\
| =========                 |                                                 |
| \\      /  F ield         | OpenFOAM: The Open Source CFD Toolbox           |
|  \\    /   O peration     | Version:  4.1                                   |
|   \\  /    A nd           | Web:      www.OpenFOAM.org                      |
|    \\/     M anipulation  |                                                 |
\*---------------------------------------------------------------------------*/
FoamFile
{
    version     2.0;
    format      ascii;
    class       volScalarField;
    location    "0.15";
    object      rho;
}
// * * * * * * * * * * * * * * * * * * * * * * * * * * * * * * * * * * * * * //

dimensions      [1 -3 0 0 0 0 0];

internalField   nonuniform List<scalar> 
3200
(
0.999943
0.999943
0.999943
0.999943
0.999943
0.999943
0.999943
0.999943
0.999943
0.999943
0.999943
0.999943
0.999943
0.999943
0.999943
0.999943
0.999943
0.999943
0.999943
0.999943
0.999943
0.999943
0.999943
0.999943
0.999943
0.999943
0.999943
0.999943
0.999943
0.999943
0.999943
0.999943
0.999943
0.999943
0.999943
0.999943
0.999943
0.999943
0.999943
0.999943
0.999943
0.999943
0.999943
0.999943
0.999943
0.999943
0.999943
0.999943
0.999943
0.999943
0.999943
0.999943
0.999943
0.999942
0.999942
0.999942
0.999942
0.999942
0.999942
0.999942
0.999942
0.999941
0.999941
0.999941
0.999941
0.999941
0.99994
0.99994
0.99994
0.999939
0.999939
0.999939
0.999938
0.999938
0.999937
0.999937
0.999936
0.999936
0.999935
0.999934
0.999934
0.999933
0.999932
0.999931
0.99993
0.999929
0.999928
0.999927
0.999925
0.999924
0.999922
0.999921
0.999919
0.999917
0.999915
0.999913
0.99991
0.999908
0.999905
0.999902
0.999899
0.999896
0.999892
0.999889
0.999885
0.999881
0.999876
0.999871
0.999866
0.999861
0.999855
0.999848
0.999842
0.999835
0.999827
0.999819
0.999811
0.999802
0.999793
0.999783
0.999772
0.999761
0.999749
0.999736
0.999723
0.999708
0.999693
0.999677
0.999661
0.999643
0.999624
0.999605
0.999584
0.999562
0.999539
0.999514
0.999488
0.999461
0.999433
0.999403
0.999371
0.999338
0.999303
0.999267
0.999229
0.999188
0.999146
0.999102
0.999055
0.999007
0.998956
0.998902
0.998846
0.998788
0.998727
0.998663
0.998596
0.998527
0.998454
0.998378
0.998299
0.998217
0.99813
0.998041
0.997948
0.99785
0.997749
0.997644
0.997535
0.997421
0.997303
0.99718
0.997053
0.99692
0.996783
0.996641
0.996493
0.996341
0.996182
0.996018
0.995849
0.995673
0.995491
0.995304
0.99511
0.994909
0.994702
0.994488
0.994268
0.99404
0.993805
0.993563
0.993314
0.993057
0.992793
0.99252
0.99224
0.991952
0.991655
0.991351
0.991037
0.990716
0.990385
0.990046
0.989698
0.989341
0.988974
0.988599
0.988214
0.987819
0.987415
0.987001
0.986578
0.986144
0.985701
0.985247
0.984784
0.98431
0.983826
0.983331
0.982826
0.982311
0.981785
0.981248
0.9807
0.980142
0.979573
0.978993
0.978402
0.9778
0.977186
0.976562
0.975927
0.975281
0.974623
0.973955
0.973275
0.972584
0.971882
0.971168
0.970444
0.969708
0.968961
0.968202
0.967433
0.966652
0.96586
0.965057
0.964243
0.963418
0.962581
0.961734
0.960875
0.960006
0.959126
0.958235
0.957332
0.95642
0.955496
0.954562
0.953617
0.952661
0.951695
0.950719
0.949732
0.948735
0.947728
0.94671
0.945682
0.944645
0.943597
0.94254
0.941472
0.940395
0.939309
0.938213
0.937107
0.935992
0.934868
0.933734
0.932592
0.93144
0.93028
0.929111
0.927933
0.926746
0.925551
0.924347
0.923136
0.921915
0.920687
0.919451
0.918207
0.916955
0.915695
0.914427
0.913152
0.91187
0.91058
0.909283
0.907979
0.906668
0.90535
0.904025
0.902693
0.901355
0.90001
0.898659
0.897301
0.895937
0.894567
0.893191
0.891809
0.890422
0.889028
0.887629
0.886224
0.884814
0.883399
0.881978
0.880552
0.879121
0.877685
0.876244
0.874798
0.873348
0.871893
0.870433
0.86897
0.867501
0.866029
0.864552
0.863071
0.861586
0.860098
0.858605
0.857109
0.855609
0.854105
0.852598
0.851088
0.849574
0.848057
0.846537
0.845013
0.843487
0.841958
0.840425
0.83889
0.837353
0.835812
0.834269
0.832724
0.831176
0.829625
0.828073
0.826518
0.824961
0.823402
0.82184
0.820277
0.818712
0.817145
0.815576
0.814006
0.812434
0.81086
0.809285
0.807708
0.80613
0.80455
0.802969
0.801387
0.799804
0.798219
0.796634
0.795047
0.793459
0.791871
0.790281
0.788691
0.7871
0.785508
0.783916
0.782322
0.780729
0.779134
0.777539
0.775944
0.774348
0.772752
0.771156
0.769559
0.767962
0.766365
0.764768
0.763171
0.761573
0.759975
0.758378
0.75678
0.755183
0.753586
0.751988
0.750391
0.748795
0.747198
0.745602
0.744006
0.74241
0.740815
0.73922
0.737626
0.736032
0.734439
0.732846
0.731254
0.729662
0.728072
0.726481
0.724892
0.723303
0.721715
0.720127
0.718541
0.716955
0.71537
0.713786
0.712203
0.710621
0.70904
0.70746
0.70588
0.704302
0.702725
0.701149
0.699574
0.698
0.696428
0.694856
0.693286
0.691716
0.690149
0.688582
0.687016
0.685452
0.683889
0.682328
0.680768
0.679209
0.677651
0.676095
0.674541
0.672987
0.671436
0.669885
0.668337
0.666789
0.665243
0.663699
0.662156
0.660615
0.659075
0.657537
0.656001
0.654466
0.652933
0.651401
0.649871
0.648343
0.646817
0.645292
0.643769
0.642247
0.640727
0.639209
0.637693
0.636179
0.634666
0.633155
0.631646
0.630139
0.628634
0.62713
0.625628
0.624128
0.62263
0.621134
0.61964
0.618147
0.616657
0.615168
0.613682
0.612197
0.610714
0.609233
0.607755
0.606278
0.604803
0.60333
0.601859
0.60039
0.598923
0.597458
0.595995
0.594534
0.593075
0.591618
0.590163
0.588711
0.58726
0.585811
0.584365
0.58292
0.581478
0.580038
0.578599
0.577163
0.575729
0.574297
0.572868
0.57144
0.570014
0.568591
0.56717
0.565751
0.564334
0.562919
0.561506
0.560096
0.558687
0.557281
0.555877
0.554475
0.553076
0.551678
0.550283
0.54889
0.547499
0.54611
0.544724
0.54334
0.541958
0.540578
0.5392
0.537825
0.536451
0.535081
0.533712
0.532345
0.530981
0.529619
0.528259
0.526902
0.525546
0.524193
0.522843
0.521494
0.520148
0.518804
0.517462
0.516122
0.514785
0.51345
0.512117
0.510787
0.509459
0.508133
0.506809
0.505488
0.504168
0.502852
0.501537
0.500225
0.498915
0.497607
0.496301
0.494998
0.493697
0.492399
0.491102
0.489808
0.488517
0.487227
0.48594
0.484655
0.483373
0.482092
0.480814
0.479539
0.478265
0.476994
0.475725
0.474459
0.473194
0.471932
0.470673
0.469415
0.46816
0.466907
0.465657
0.464409
0.463163
0.461919
0.460678
0.459439
0.458202
0.456968
0.455736
0.454506
0.453278
0.452053
0.45083
0.449609
0.448391
0.447175
0.445961
0.444749
0.44354
0.442333
0.441129
0.439926
0.438726
0.437528
0.436333
0.43514
0.433949
0.43276
0.431574
0.43039
0.429208
0.428028
0.426851
0.425676
0.424503
0.423333
0.422165
0.420999
0.419835
0.418674
0.417515
0.416358
0.415204
0.414052
0.412902
0.411754
0.410608
0.409465
0.408324
0.407186
0.406049
0.404915
0.403783
0.402654
0.401526
0.400401
0.399278
0.398158
0.397039
0.395923
0.394809
0.393697
0.392588
0.391481
0.390376
0.389273
0.388173
0.387074
0.385978
0.384885
0.383793
0.382704
0.381617
0.380532
0.379449
0.378369
0.377291
0.376215
0.375141
0.374069
0.373
0.371933
0.370868
0.369805
0.368745
0.367686
0.36663
0.365576
0.364524
0.363475
0.362428
0.361382
0.360339
0.359299
0.35826
0.357224
0.356189
0.355157
0.354128
0.3531
0.352074
0.351051
0.35003
0.349011
0.347994
0.346979
0.345967
0.344956
0.343948
0.342942
0.341938
0.340936
0.339936
0.338939
0.337944
0.33695
0.335959
0.33497
0.333984
0.332999
0.332016
0.331036
0.330058
0.329082
0.328107
0.327136
0.326166
0.325198
0.324232
0.323269
0.322308
0.321348
0.320391
0.319436
0.318483
0.317532
0.316583
0.315637
0.314692
0.31375
0.312809
0.311871
0.310934
0.31
0.309068
0.308138
0.30721
0.306284
0.30536
0.304438
0.303519
0.302601
0.301685
0.300772
0.29986
0.298951
0.298043
0.297138
0.296234
0.295333
0.294434
0.293537
0.292641
0.291748
0.290857
0.289968
0.289081
0.288195
0.287312
0.286431
0.285552
0.284675
0.2838
0.282927
0.282056
0.281187
0.28032
0.279454
0.278591
0.27773
0.276871
0.276014
0.275159
0.274306
0.273454
0.272605
0.271758
0.270912
0.270069
0.269228
0.268388
0.267551
0.266715
0.265881
0.26505
0.26422
0.263392
0.262566
0.261743
0.260921
0.260101
0.259283
0.258466
0.257652
0.25684
0.256029
0.255221
0.254414
0.25361
0.252807
0.252006
0.251207
0.25041
0.249615
0.248822
0.24803
0.247241
0.246453
0.245667
0.244884
0.244102
0.243322
0.242543
0.241767
0.240993
0.24022
0.239449
0.23868
0.237913
0.237148
0.236385
0.235623
0.234864
0.234106
0.23335
0.232596
0.231844
0.231093
0.230345
0.229598
0.228853
0.22811
0.227369
0.226629
0.225891
0.225156
0.224422
0.223689
0.222959
0.22223
0.221503
0.220778
0.220055
0.219334
0.218614
0.217896
0.21718
0.216466
0.215753
0.215042
0.214333
0.213626
0.212921
0.212217
0.211515
0.210815
0.210116
0.20942
0.208725
0.208031
0.20734
0.20665
0.205962
0.205276
0.204592
0.203909
0.203228
0.202548
0.201871
0.201195
0.200521
0.199848
0.199178
0.198509
0.197841
0.197176
0.196512
0.19585
0.195189
0.19453
0.193873
0.193218
0.192564
0.191912
0.191261
0.190613
0.189966
0.18932
0.188677
0.188035
0.187394
0.186755
0.186118
0.185483
0.184849
0.184217
0.183587
0.182958
0.182331
0.181705
0.181081
0.180459
0.179838
0.179219
0.178602
0.177986
0.177372
0.176759
0.176149
0.175539
0.174932
0.174325
0.173721
0.173118
0.172517
0.171917
0.171319
0.170723
0.170128
0.169534
0.168943
0.168352
0.167764
0.167177
0.166591
0.166007
0.165425
0.164844
0.164265
0.163687
0.163111
0.162537
0.161964
0.161392
0.160823
0.160254
0.159687
0.159122
0.158558
0.157996
0.157436
0.156876
0.156319
0.155763
0.155208
0.154655
0.154104
0.153553
0.153005
0.152458
0.151912
0.151368
0.150826
0.150285
0.149745
0.149207
0.148671
0.148136
0.147602
0.14707
0.146539
0.14601
0.145482
0.144956
0.144431
0.143908
0.143386
0.142866
0.142347
0.141829
0.141313
0.140799
0.140285
0.139774
0.139264
0.138755
0.138247
0.137741
0.137237
0.136734
0.136232
0.135732
0.135233
0.134736
0.13424
0.133745
0.133252
0.13276
0.13227
0.131781
0.131293
0.130807
0.130322
0.129839
0.129357
0.128876
0.128397
0.127919
0.127442
0.126967
0.126494
0.126021
0.12555
0.125081
0.124612
0.124145
0.12368
0.123216
0.122753
0.122291
0.121831
0.121372
0.120915
0.120459
0.120004
0.119551
0.119098
0.118648
0.118198
0.11775
0.117303
0.116858
0.116414
0.115971
0.115529
0.115089
0.11465
0.114212
0.113776
0.113341
0.112907
0.112475
0.112044
0.111614
0.111185
0.110758
0.110332
0.109907
0.109484
0.109062
0.108641
0.108221
0.107803
0.107386
0.10697
0.106556
0.106142
0.10573
0.10532
0.10491
0.104502
0.104095
0.103689
0.103284
0.102881
0.102479
0.102078
0.101679
0.10128
0.100883
0.100487
0.100092
0.099699
0.0993067
0.0989157
0.0985259
0.0981372
0.0977498
0.0973636
0.0969786
0.0965949
0.0962123
0.0958309
0.0954507
0.0950716
0.0946938
0.0943172
0.0939417
0.0935675
0.0931944
0.0928225
0.0924518
0.0920822
0.0917138
0.0913466
0.0909805
0.0906157
0.0902519
0.0898894
0.089528
0.0891677
0.0888086
0.0884507
0.0880939
0.0877382
0.0873837
0.0870303
0.0866781
0.086327
0.085977
0.0856282
0.0852805
0.084934
0.0845885
0.0842442
0.083901
0.0835589
0.083218
0.0828781
0.0825394
0.0822017
0.0818652
0.0815298
0.0811955
0.0808623
0.0805302
0.0801992
0.0798692
0.0795404
0.0792127
0.078886
0.0785604
0.078236
0.0779126
0.0775902
0.077269
0.0769488
0.0766297
0.0763117
0.0759947
0.0756788
0.075364
0.0750502
0.0747375
0.0744258
0.0741152
0.0738057
0.0734972
0.0731897
0.0728833
0.072578
0.0722736
0.0719703
0.0716681
0.0713669
0.0710667
0.0707676
0.0704695
0.0701724
0.0698763
0.0695813
0.0692873
0.0689943
0.0687023
0.0684113
0.0681213
0.0678324
0.0675444
0.0672575
0.0669716
0.0666866
0.0664027
0.0661198
0.0658378
0.0655569
0.0652769
0.064998
0.06472
0.064443
0.064167
0.063892
0.0636179
0.0633449
0.0630728
0.0628016
0.0625315
0.0622623
0.0619941
0.0617268
0.0614605
0.0611952
0.0609308
0.0606674
0.060405
0.0601435
0.0598829
0.0596233
0.0593647
0.059107
0.0588502
0.0585944
0.0583395
0.0580855
0.0578325
0.0575804
0.0573293
0.0570791
0.0568298
0.0565814
0.056334
0.0560875
0.0558419
0.0555972
0.0553534
0.0551106
0.0548686
0.0546276
0.0543875
0.0541483
0.05391
0.0536726
0.0534361
0.0532006
0.0529659
0.0527321
0.0524992
0.0522672
0.0520361
0.0518059
0.0515765
0.0513481
0.0511205
0.0508939
0.0506681
0.0504432
0.0502191
0.049996
0.0497737
0.0495523
0.0493318
0.0491121
0.0488934
0.0486754
0.0484584
0.0482422
0.0480269
0.0478125
0.0475989
0.0473861
0.0471743
0.0469633
0.0467531
0.0465438
0.0463354
0.0461278
0.0459211
0.0457152
0.0455101
0.045306
0.0451026
0.0449001
0.0446985
0.0444977
0.0442977
0.0440986
0.0439004
0.043703
0.0435064
0.0433106
0.0431157
0.0429217
0.0427285
0.0425361
0.0423446
0.0421539
0.041964
0.041775
0.0415868
0.0413995
0.041213
0.0410273
0.0408425
0.0406585
0.0404753
0.040293
0.0401116
0.039931
0.0397512
0.0395722
0.0393942
0.0392169
0.0390405
0.038865
0.0386903
0.0385164
0.0383435
0.0381713
0.0380001
0.0378297
0.0376601
0.0374914
0.0373236
0.0371567
0.0369907
0.0368255
0.0366612
0.0364978
0.0363353
0.0361737
0.036013
0.0358532
0.0356943
0.0355363
0.0353793
0.0352232
0.0350681
0.0349139
0.0347606
0.0346083
0.034457
0.0343067
0.0341574
0.0340091
0.0338618
0.0337155
0.0335703
0.0334261
0.033283
0.0331409
0.033
0.0328602
0.0327215
0.0325839
0.0324475
0.0323123
0.0321783
0.0320455
0.031914
0.0317837
0.0316547
0.031527
0.0314006
0.0312756
0.0311519
0.0310297
0.0309089
0.0307895
0.0306716
0.0305552
0.0304404
0.0303271
0.0302153
0.0301052
0.0299967
0.0298899
0.0297848
0.0296813
0.0295796
0.0294796
0.0293813
0.0292848
0.0291901
0.0290971
0.029006
0.0289166
0.0288289
0.0287431
0.028659
0.0285766
0.028496
0.028417
0.0283397
0.028264
0.0281898
0.0281172
0.0280461
0.0279764
0.0279081
0.027841
0.0277752
0.0277106
0.0276471
0.0275846
0.027523
0.0274624
0.0274026
0.0273435
0.0272851
0.0272273
0.0271701
0.0271134
0.0270571
0.0270012
0.0269456
0.0268903
0.0268352
0.0267804
0.0267257
0.0266711
0.0266167
0.0265623
0.026508
0.0264538
0.0263996
0.0263454
0.0262912
0.026237
0.0261829
0.0261287
0.0260745
0.0260202
0.025966
0.0259118
0.0258575
0.0258032
0.025749
0.0256947
0.0256404
0.0255861
0.0255318
0.0254775
0.0254232
0.0253689
0.0253147
0.0252604
0.0252062
0.0251519
0.0250977
0.0250435
0.0249893
0.0249352
0.024881
0.0248269
0.0247728
0.0247187
0.0246647
0.0246106
0.0245566
0.0245026
0.0244486
0.0243946
0.0243406
0.0242866
0.0242327
0.0241787
0.0241247
0.0240708
0.0240168
0.0239629
0.0239089
0.0238549
0.0238009
0.0237469
0.0236928
0.0236388
0.0235847
0.0235306
0.0234764
0.0234222
0.023368
0.0233137
0.0232594
0.023205
0.0231505
0.023096
0.0230414
0.0229868
0.0229321
0.0228773
0.0228224
0.0227674
0.0227124
0.0226572
0.022602
0.0225466
0.0224911
0.0224355
0.0223798
0.022324
0.022268
0.0222119
0.0221557
0.0220993
0.0220428
0.0219861
0.0219292
0.0218722
0.0218151
0.0217577
0.0217002
0.0216425
0.0215846
0.0215265
0.0214683
0.0214098
0.0213511
0.0212922
0.0212331
0.0211737
0.0211142
0.0210544
0.0209944
0.0209341
0.0208736
0.0208129
0.0207519
0.0206906
0.0206291
0.0205673
0.0205053
0.020443
0.0203804
0.0203176
0.0202545
0.0201911
0.0201274
0.0200634
0.0199992
0.0199347
0.0198699
0.0198048
0.0197394
0.0196738
0.0196078
0.0195416
0.0194752
0.0194084
0.0193414
0.0192742
0.0192067
0.0191389
0.0190709
0.0190027
0.0189343
0.0188657
0.0187969
0.018728
0.0186588
0.0185896
0.0185203
0.0184508
0.0183813
0.0183118
0.0182423
0.0181728
0.0181034
0.018034
0.0179649
0.0178959
0.0178271
0.0177587
0.0176906
0.0176229
0.0175556
0.0174889
0.0174228
0.0173573
0.0172925
0.0172286
0.0171656
0.0171036
0.0170426
0.0169828
0.0169242
0.016867
0.0168113
0.0167571
0.0167045
0.0166537
0.0166047
0.0165577
0.0165127
0.0164698
0.0164291
0.0163907
0.0163547
0.016321
0.0162898
0.0162611
0.0162348
0.0162111
0.0161898
0.0161709
0.0161544
0.0161402
0.0161281
0.016118
0.0161098
0.0161033
0.0160984
0.0160947
0.0160922
0.0160906
0.0160898
0.0160895
0.0160895
0.0160897
0.01609
0.0160903
0.0160904
0.0160904
0.0160903
0.01609
0.0160897
0.0160895
0.0160895
0.0160898
0.0160906
0.0160922
0.0160947
0.0160984
0.0161033
0.0161098
0.016118
0.0161281
0.0161402
0.0161544
0.0161709
0.0161898
0.0162111
0.0162348
0.0162611
0.0162898
0.016321
0.0163547
0.0163907
0.0164291
0.0164698
0.0165127
0.0165577
0.0166047
0.0166537
0.0167045
0.0167571
0.0168113
0.016867
0.0169242
0.0169828
0.0170426
0.0171036
0.0171656
0.0172286
0.0172925
0.0173573
0.0174228
0.0174889
0.0175556
0.0176229
0.0176906
0.0177587
0.0178271
0.0178959
0.0179649
0.018034
0.0181034
0.0181728
0.0182423
0.0183118
0.0183813
0.0184508
0.0185203
0.0185896
0.0186588
0.018728
0.0187969
0.0188657
0.0189343
0.0190027
0.0190709
0.0191389
0.0192067
0.0192742
0.0193414
0.0194084
0.0194752
0.0195416
0.0196078
0.0196738
0.0197394
0.0198048
0.0198699
0.0199347
0.0199992
0.0200634
0.0201274
0.0201911
0.0202545
0.0203176
0.0203804
0.020443
0.0205053
0.0205673
0.0206291
0.0206906
0.0207519
0.0208129
0.0208736
0.0209341
0.0209944
0.0210544
0.0211142
0.0211737
0.0212331
0.0212922
0.0213511
0.0214098
0.0214683
0.0215265
0.0215846
0.0216425
0.0217002
0.0217577
0.0218151
0.0218722
0.0219292
0.0219861
0.0220428
0.0220993
0.0221557
0.0222119
0.022268
0.022324
0.0223798
0.0224355
0.0224911
0.0225466
0.022602
0.0226572
0.0227124
0.0227674
0.0228224
0.0228773
0.0229321
0.0229868
0.0230414
0.023096
0.0231505
0.023205
0.0232594
0.0233137
0.023368
0.0234222
0.0234764
0.0235306
0.0235847
0.0236388
0.0236928
0.0237469
0.0238009
0.0238549
0.0239089
0.0239629
0.0240168
0.0240708
0.0241247
0.0241787
0.0242327
0.0242866
0.0243406
0.0243946
0.0244486
0.0245026
0.0245566
0.0246106
0.0246647
0.0247187
0.0247728
0.0248269
0.024881
0.0249352
0.0249893
0.0250435
0.0250977
0.0251519
0.0252062
0.0252604
0.0253147
0.0253689
0.0254232
0.0254775
0.0255318
0.0255861
0.0256404
0.0256947
0.025749
0.0258032
0.0258575
0.0259118
0.025966
0.0260202
0.0260745
0.0261287
0.0261829
0.026237
0.0262912
0.0263454
0.0263996
0.0264538
0.026508
0.0265623
0.0266167
0.0266711
0.0267257
0.0267804
0.0268352
0.0268903
0.0269456
0.0270012
0.0270571
0.0271134
0.0271701
0.0272273
0.0272851
0.0273435
0.0274026
0.0274624
0.027523
0.0275846
0.0276471
0.0277106
0.0277752
0.027841
0.0279081
0.0279764
0.0280461
0.0281172
0.0281898
0.028264
0.0283397
0.028417
0.028496
0.0285766
0.028659
0.0287431
0.0288289
0.0289166
0.029006
0.0290971
0.0291901
0.0292848
0.0293813
0.0294796
0.0295796
0.0296813
0.0297848
0.0298899
0.0299967
0.0301052
0.0302153
0.0303271
0.0304404
0.0305552
0.0306716
0.0307895
0.0309089
0.0310297
0.0311519
0.0312756
0.0314006
0.031527
0.0316547
0.0317837
0.031914
0.0320455
0.0321783
0.0323123
0.0324475
0.0325839
0.0327215
0.0328602
0.033
0.0331409
0.033283
0.0334261
0.0335703
0.0337155
0.0338618
0.0340091
0.0341574
0.0343067
0.034457
0.0346083
0.0347606
0.0349139
0.0350681
0.0352232
0.0353793
0.0355363
0.0356943
0.0358532
0.036013
0.0361737
0.0363353
0.0364978
0.0366612
0.0368255
0.0369907
0.0371567
0.0373236
0.0374914
0.0376601
0.0378297
0.0380001
0.0381713
0.0383435
0.0385164
0.0386903
0.038865
0.0390405
0.0392169
0.0393942
0.0395722
0.0397512
0.039931
0.0401116
0.040293
0.0404753
0.0406585
0.0408425
0.0410273
0.041213
0.0413995
0.0415868
0.041775
0.041964
0.0421539
0.0423446
0.0425361
0.0427285
0.0429217
0.0431157
0.0433106
0.0435064
0.043703
0.0439004
0.0440986
0.0442977
0.0444977
0.0446985
0.0449001
0.0451026
0.045306
0.0455101
0.0457152
0.0459211
0.0461278
0.0463354
0.0465438
0.0467531
0.0469633
0.0471743
0.0473861
0.0475989
0.0478125
0.0480269
0.0482422
0.0484584
0.0486754
0.0488934
0.0491121
0.0493318
0.0495523
0.0497737
0.049996
0.0502191
0.0504432
0.0506681
0.0508939
0.0511205
0.0513481
0.0515765
0.0518059
0.0520361
0.0522672
0.0524992
0.0527321
0.0529659
0.0532006
0.0534361
0.0536726
0.05391
0.0541483
0.0543875
0.0546276
0.0548686
0.0551106
0.0553534
0.0555972
0.0558419
0.0560875
0.056334
0.0565814
0.0568298
0.0570791
0.0573293
0.0575804
0.0578325
0.0580855
0.0583395
0.0585944
0.0588502
0.059107
0.0593647
0.0596233
0.0598829
0.0601435
0.060405
0.0606674
0.0609308
0.0611952
0.0614605
0.0617268
0.0619941
0.0622623
0.0625315
0.0628016
0.0630728
0.0633449
0.0636179
0.063892
0.064167
0.064443
0.06472
0.064998
0.0652769
0.0655569
0.0658378
0.0661198
0.0664027
0.0666866
0.0669716
0.0672575
0.0675444
0.0678324
0.0681213
0.0684113
0.0687023
0.0689943
0.0692873
0.0695813
0.0698763
0.0701724
0.0704695
0.0707676
0.0710667
0.0713669
0.0716681
0.0719703
0.0722736
0.072578
0.0728833
0.0731897
0.0734972
0.0738057
0.0741152
0.0744258
0.0747375
0.0750502
0.075364
0.0756788
0.0759947
0.0763117
0.0766297
0.0769488
0.077269
0.0775902
0.0779126
0.078236
0.0785604
0.078886
0.0792127
0.0795404
0.0798692
0.0801992
0.0805302
0.0808623
0.0811955
0.0815298
0.0818652
0.0822017
0.0825394
0.0828781
0.083218
0.0835589
0.083901
0.0842442
0.0845885
0.084934
0.0852805
0.0856282
0.085977
0.086327
0.0866781
0.0870303
0.0873837
0.0877382
0.0880939
0.0884507
0.0888086
0.0891677
0.089528
0.0898894
0.0902519
0.0906157
0.0909805
0.0913466
0.0917138
0.0920822
0.0924518
0.0928225
0.0931944
0.0935675
0.0939417
0.0943172
0.0946938
0.0950716
0.0954507
0.0958309
0.0962123
0.0965949
0.0969786
0.0973636
0.0977498
0.0981372
0.0985259
0.0989157
0.0993067
0.099699
0.100092
0.100487
0.100883
0.10128
0.101679
0.102078
0.102479
0.102881
0.103284
0.103689
0.104095
0.104502
0.10491
0.10532
0.10573
0.106142
0.106556
0.10697
0.107386
0.107803
0.108221
0.108641
0.109062
0.109484
0.109907
0.110332
0.110758
0.111185
0.111614
0.112044
0.112475
0.112907
0.113341
0.113776
0.114212
0.11465
0.115089
0.115529
0.115971
0.116414
0.116858
0.117303
0.11775
0.118198
0.118648
0.119098
0.119551
0.120004
0.120459
0.120915
0.121372
0.121831
0.122291
0.122753
0.123216
0.12368
0.124145
0.124612
0.125081
0.12555
0.126021
0.126494
0.126967
0.127442
0.127919
0.128397
0.128876
0.129357
0.129839
0.130322
0.130807
0.131293
0.131781
0.13227
0.13276
0.133252
0.133745
0.13424
0.134736
0.135233
0.135732
0.136232
0.136734
0.137237
0.137741
0.138247
0.138755
0.139264
0.139774
0.140285
0.140799
0.141313
0.141829
0.142347
0.142866
0.143386
0.143908
0.144431
0.144956
0.145482
0.14601
0.146539
0.14707
0.147602
0.148136
0.148671
0.149207
0.149745
0.150285
0.150826
0.151368
0.151912
0.152458
0.153005
0.153553
0.154104
0.154655
0.155208
0.155763
0.156319
0.156876
0.157436
0.157996
0.158558
0.159122
0.159687
0.160254
0.160823
0.161392
0.161964
0.162537
0.163111
0.163687
0.164265
0.164844
0.165425
0.166007
0.166591
0.167177
0.167764
0.168352
0.168943
0.169534
0.170128
0.170723
0.171319
0.171917
0.172517
0.173118
0.173721
0.174325
0.174932
0.175539
0.176149
0.176759
0.177372
0.177986
0.178602
0.179219
0.179838
0.180459
0.181081
0.181705
0.182331
0.182958
0.183587
0.184217
0.184849
0.185483
0.186118
0.186755
0.187394
0.188035
0.188677
0.18932
0.189966
0.190613
0.191261
0.191912
0.192564
0.193218
0.193873
0.19453
0.195189
0.19585
0.196512
0.197176
0.197841
0.198509
0.199178
0.199848
0.200521
0.201195
0.201871
0.202548
0.203228
0.203909
0.204592
0.205276
0.205962
0.20665
0.20734
0.208031
0.208725
0.20942
0.210116
0.210815
0.211515
0.212217
0.212921
0.213626
0.214333
0.215042
0.215753
0.216466
0.21718
0.217896
0.218614
0.219334
0.220055
0.220778
0.221503
0.22223
0.222959
0.223689
0.224422
0.225156
0.225891
0.226629
0.227369
0.22811
0.228853
0.229598
0.230345
0.231093
0.231844
0.232596
0.23335
0.234106
0.234864
0.235623
0.236385
0.237148
0.237913
0.23868
0.239449
0.24022
0.240993
0.241767
0.242543
0.243322
0.244102
0.244884
0.245667
0.246453
0.247241
0.24803
0.248822
0.249615
0.25041
0.251207
0.252006
0.252807
0.25361
0.254414
0.255221
0.256029
0.25684
0.257652
0.258466
0.259283
0.260101
0.260921
0.261743
0.262566
0.263392
0.26422
0.26505
0.265881
0.266715
0.267551
0.268388
0.269228
0.270069
0.270912
0.271758
0.272605
0.273454
0.274306
0.275159
0.276014
0.276871
0.27773
0.278591
0.279454
0.28032
0.281187
0.282056
0.282927
0.2838
0.284675
0.285552
0.286431
0.287312
0.288195
0.289081
0.289968
0.290857
0.291748
0.292641
0.293537
0.294434
0.295333
0.296234
0.297138
0.298043
0.298951
0.29986
0.300772
0.301685
0.302601
0.303519
0.304438
0.30536
0.306284
0.30721
0.308138
0.309068
0.31
0.310934
0.311871
0.312809
0.31375
0.314692
0.315637
0.316583
0.317532
0.318483
0.319436
0.320391
0.321348
0.322308
0.323269
0.324232
0.325198
0.326166
0.327136
0.328107
0.329082
0.330058
0.331036
0.332016
0.332999
0.333984
0.33497
0.335959
0.33695
0.337944
0.338939
0.339936
0.340936
0.341938
0.342942
0.343948
0.344956
0.345967
0.346979
0.347994
0.349011
0.35003
0.351051
0.352074
0.3531
0.354128
0.355157
0.356189
0.357224
0.35826
0.359299
0.360339
0.361382
0.362428
0.363475
0.364524
0.365576
0.36663
0.367686
0.368745
0.369805
0.370868
0.371933
0.373
0.374069
0.375141
0.376215
0.377291
0.378369
0.379449
0.380532
0.381617
0.382704
0.383793
0.384885
0.385978
0.387074
0.388173
0.389273
0.390376
0.391481
0.392588
0.393697
0.394809
0.395923
0.397039
0.398158
0.399278
0.400401
0.401526
0.402654
0.403783
0.404915
0.406049
0.407186
0.408324
0.409465
0.410608
0.411754
0.412902
0.414052
0.415204
0.416358
0.417515
0.418674
0.419835
0.420999
0.422165
0.423333
0.424503
0.425676
0.426851
0.428028
0.429208
0.43039
0.431574
0.43276
0.433949
0.43514
0.436333
0.437528
0.438726
0.439926
0.441129
0.442333
0.44354
0.444749
0.445961
0.447175
0.448391
0.449609
0.45083
0.452053
0.453278
0.454506
0.455736
0.456968
0.458202
0.459439
0.460678
0.461919
0.463163
0.464409
0.465657
0.466907
0.46816
0.469415
0.470673
0.471932
0.473194
0.474459
0.475725
0.476994
0.478265
0.479539
0.480814
0.482092
0.483373
0.484655
0.48594
0.487227
0.488517
0.489808
0.491102
0.492399
0.493697
0.494998
0.496301
0.497607
0.498915
0.500225
0.501537
0.502852
0.504168
0.505488
0.506809
0.508133
0.509459
0.510787
0.512117
0.51345
0.514785
0.516122
0.517462
0.518804
0.520148
0.521494
0.522843
0.524193
0.525546
0.526902
0.528259
0.529619
0.530981
0.532345
0.533712
0.535081
0.536451
0.537825
0.5392
0.540578
0.541958
0.54334
0.544724
0.54611
0.547499
0.54889
0.550283
0.551678
0.553076
0.554475
0.555877
0.557281
0.558687
0.560096
0.561506
0.562919
0.564334
0.565751
0.56717
0.568591
0.570014
0.57144
0.572868
0.574297
0.575729
0.577163
0.578599
0.580038
0.581478
0.58292
0.584365
0.585811
0.58726
0.588711
0.590163
0.591618
0.593075
0.594534
0.595995
0.597458
0.598923
0.60039
0.601859
0.60333
0.604803
0.606278
0.607755
0.609233
0.610714
0.612197
0.613682
0.615168
0.616657
0.618147
0.61964
0.621134
0.62263
0.624128
0.625628
0.62713
0.628634
0.630139
0.631646
0.633155
0.634666
0.636179
0.637693
0.639209
0.640727
0.642247
0.643769
0.645292
0.646817
0.648343
0.649871
0.651401
0.652933
0.654466
0.656001
0.657537
0.659075
0.660615
0.662156
0.663699
0.665243
0.666789
0.668337
0.669885
0.671436
0.672987
0.674541
0.676095
0.677651
0.679209
0.680768
0.682328
0.683889
0.685452
0.687016
0.688582
0.690149
0.691716
0.693286
0.694856
0.696428
0.698
0.699574
0.701149
0.702725
0.704302
0.70588
0.70746
0.70904
0.710621
0.712203
0.713786
0.71537
0.716955
0.718541
0.720127
0.721715
0.723303
0.724892
0.726481
0.728072
0.729662
0.731254
0.732846
0.734439
0.736032
0.737626
0.73922
0.740815
0.74241
0.744006
0.745602
0.747198
0.748795
0.750391
0.751988
0.753586
0.755183
0.75678
0.758378
0.759975
0.761573
0.763171
0.764768
0.766365
0.767962
0.769559
0.771156
0.772752
0.774348
0.775944
0.777539
0.779134
0.780729
0.782322
0.783916
0.785508
0.7871
0.788691
0.790281
0.791871
0.793459
0.795047
0.796634
0.798219
0.799804
0.801387
0.802969
0.80455
0.80613
0.807708
0.809285
0.81086
0.812434
0.814006
0.815576
0.817145
0.818712
0.820277
0.82184
0.823402
0.824961
0.826518
0.828073
0.829625
0.831176
0.832724
0.834269
0.835812
0.837353
0.83889
0.840425
0.841958
0.843487
0.845013
0.846537
0.848057
0.849574
0.851088
0.852598
0.854105
0.855609
0.857109
0.858605
0.860098
0.861586
0.863071
0.864552
0.866029
0.867501
0.86897
0.870433
0.871893
0.873348
0.874798
0.876244
0.877685
0.879121
0.880552
0.881978
0.883399
0.884814
0.886224
0.887629
0.889028
0.890422
0.891809
0.893191
0.894567
0.895937
0.897301
0.898659
0.90001
0.901355
0.902693
0.904025
0.90535
0.906668
0.907979
0.909283
0.91058
0.91187
0.913152
0.914427
0.915695
0.916955
0.918207
0.919451
0.920687
0.921915
0.923136
0.924347
0.925551
0.926746
0.927933
0.929111
0.93028
0.93144
0.932592
0.933734
0.934868
0.935992
0.937107
0.938213
0.939309
0.940395
0.941472
0.94254
0.943597
0.944645
0.945682
0.94671
0.947728
0.948735
0.949732
0.950719
0.951695
0.952661
0.953617
0.954562
0.955496
0.95642
0.957332
0.958235
0.959126
0.960006
0.960875
0.961734
0.962581
0.963418
0.964243
0.965057
0.96586
0.966652
0.967433
0.968202
0.968961
0.969708
0.970444
0.971168
0.971882
0.972584
0.973275
0.973955
0.974623
0.975281
0.975927
0.976562
0.977186
0.9778
0.978402
0.978993
0.979573
0.980142
0.9807
0.981248
0.981785
0.982311
0.982826
0.983331
0.983826
0.98431
0.984784
0.985247
0.985701
0.986144
0.986578
0.987001
0.987415
0.987819
0.988214
0.988599
0.988974
0.989341
0.989698
0.990046
0.990385
0.990716
0.991037
0.991351
0.991655
0.991952
0.99224
0.99252
0.992793
0.993057
0.993314
0.993563
0.993805
0.99404
0.994268
0.994488
0.994702
0.994909
0.99511
0.995304
0.995491
0.995673
0.995849
0.996018
0.996182
0.996341
0.996493
0.996641
0.996783
0.99692
0.997053
0.99718
0.997303
0.997421
0.997535
0.997644
0.997749
0.99785
0.997948
0.998041
0.99813
0.998217
0.998299
0.998378
0.998454
0.998527
0.998596
0.998663
0.998727
0.998788
0.998846
0.998902
0.998956
0.999007
0.999055
0.999102
0.999146
0.999188
0.999229
0.999267
0.999303
0.999338
0.999371
0.999403
0.999433
0.999461
0.999488
0.999514
0.999539
0.999562
0.999584
0.999605
0.999624
0.999643
0.999661
0.999677
0.999693
0.999708
0.999723
0.999736
0.999749
0.999761
0.999772
0.999783
0.999793
0.999802
0.999811
0.999819
0.999827
0.999835
0.999842
0.999848
0.999855
0.999861
0.999866
0.999871
0.999876
0.999881
0.999885
0.999889
0.999892
0.999896
0.999899
0.999902
0.999905
0.999908
0.99991
0.999913
0.999915
0.999917
0.999919
0.999921
0.999922
0.999924
0.999925
0.999927
0.999928
0.999929
0.99993
0.999931
0.999932
0.999933
0.999934
0.999934
0.999935
0.999936
0.999936
0.999937
0.999937
0.999938
0.999938
0.999939
0.999939
0.999939
0.99994
0.99994
0.99994
0.999941
0.999941
0.999941
0.999941
0.999941
0.999942
0.999942
0.999942
0.999942
0.999942
0.999942
0.999942
0.999942
0.999943
0.999943
0.999943
0.999943
0.999943
0.999943
0.999943
0.999943
0.999943
0.999943
0.999943
0.999943
0.999943
0.999943
0.999943