/*--------------------------------*- C++ -*----------------------------------*\
| =========                 |                                                 |
| \\      /  F ield         | OpenFOAM: The Open Source CFD Toolbox           |
|  \\    /   O peration     | Version:  4.1                                   |
|   \\  /    A nd           | Web:      www.OpenFOAM.org                      |
|    \\/     M anipulation  |                                                 |
\*---------------------------------------------------------------------------*/
FoamFile
{
    version     2.0;
    format      ascii;
    class       volScalarField;
    location    "0.15";
    object      T;
}
// * * * * * * * * * * * * * * * * * * * * * * * * * * * * * * * * * * * * * //

dimensions      [0 0 0 1 0 0 0];

internalField   nonuniform List<scalar> 
3200
(
1
1
1
1
1
1
1
1
1
1
1
1
1
1
1
1
1
1
1
1
1
1
1
1
1
1
1
1
1
1
1
1
1
1
1
1
1
1
1
1
1
1
1
1
1
1
1
1
1
1
1
1
1
1
1
1
0.999999
0.999999
0.999999
0.999999
0.999999
0.999999
0.999999
0.999999
0.999999
0.999999
0.999999
0.999999
0.999999
0.999998
0.999998
0.999998
0.999998
0.999998
0.999998
0.999997
0.999997
0.999997
0.999997
0.999996
0.999996
0.999996
0.999995
0.999995
0.999995
0.999994
0.999994
0.999993
0.999993
0.999992
0.999991
0.999991
0.99999
0.999989
0.999988
0.999988
0.999987
0.999986
0.999984
0.999983
0.999982
0.999981
0.999979
0.999978
0.999976
0.999974
0.999973
0.999971
0.999969
0.999966
0.999964
0.999962
0.999959
0.999956
0.999953
0.99995
0.999946
0.999943
0.999939
0.999935
0.999931
0.999926
0.999921
0.999916
0.999911
0.999905
0.999899
0.999892
0.999886
0.999878
0.999871
0.999863
0.999854
0.999845
0.999836
0.999826
0.999816
0.999805
0.999793
0.999781
0.999769
0.999755
0.999741
0.999726
0.999711
0.999695
0.999678
0.99966
0.999641
0.999621
0.999601
0.999579
0.999557
0.999533
0.999508
0.999483
0.999456
0.999428
0.999398
0.999368
0.999336
0.999302
0.999268
0.999231
0.999194
0.999155
0.999114
0.999071
0.999027
0.998981
0.998934
0.998884
0.998833
0.998779
0.998724
0.998667
0.998607
0.998546
0.998482
0.998416
0.998347
0.998277
0.998203
0.998128
0.99805
0.997969
0.997885
0.997799
0.99771
0.997618
0.997524
0.997426
0.997326
0.997222
0.997116
0.997006
0.996893
0.996777
0.996657
0.996534
0.996408
0.996278
0.996145
0.996008
0.995868
0.995724
0.995576
0.995425
0.99527
0.99511
0.994947
0.994781
0.99461
0.994435
0.994256
0.994073
0.993886
0.993695
0.993499
0.9933
0.993096
0.992888
0.992675
0.992458
0.992237
0.992011
0.991781
0.991547
0.991308
0.991065
0.990817
0.990564
0.990307
0.990046
0.98978
0.989509
0.989234
0.988954
0.988669
0.98838
0.988086
0.987788
0.987485
0.987177
0.986865
0.986548
0.986226
0.9859
0.985569
0.985234
0.984894
0.984549
0.9842
0.983846
0.983488
0.983125
0.982757
0.982385
0.982008
0.981627
0.981241
0.980851
0.980457
0.980057
0.979654
0.979246
0.978834
0.978417
0.977996
0.977571
0.977141
0.976707
0.976269
0.975827
0.97538
0.97493
0.974475
0.974016
0.973553
0.973086
0.972615
0.97214
0.971661
0.971178
0.970691
0.9702
0.969706
0.969207
0.968705
0.968199
0.96769
0.967177
0.96666
0.966139
0.965615
0.965087
0.964556
0.964022
0.963484
0.962942
0.962398
0.961849
0.961298
0.960743
0.960185
0.959624
0.95906
0.958492
0.957922
0.957348
0.956771
0.956192
0.955609
0.955024
0.954435
0.953844
0.95325
0.952653
0.952053
0.95145
0.950845
0.950237
0.949627
0.949014
0.948398
0.94778
0.947159
0.946535
0.94591
0.945282
0.944651
0.944018
0.943383
0.942745
0.942106
0.941463
0.940819
0.940173
0.939524
0.938873
0.93822
0.937565
0.936909
0.936249
0.935588
0.934925
0.934261
0.933594
0.932925
0.932254
0.931582
0.930908
0.930232
0.929554
0.928874
0.928193
0.92751
0.926826
0.926139
0.925452
0.924762
0.924071
0.923379
0.922685
0.921989
0.921292
0.920593
0.919893
0.919192
0.918489
0.917785
0.917079
0.916372
0.915664
0.914955
0.914244
0.913532
0.912819
0.912104
0.911388
0.910672
0.909953
0.909234
0.908514
0.907792
0.90707
0.906346
0.905622
0.904896
0.904169
0.903441
0.902713
0.901983
0.901252
0.90052
0.899788
0.899054
0.89832
0.897585
0.896848
0.896111
0.895373
0.894635
0.893895
0.893155
0.892414
0.891672
0.890929
0.890186
0.889442
0.888697
0.887951
0.887205
0.886458
0.88571
0.884962
0.884213
0.883463
0.882713
0.881962
0.881211
0.880459
0.879706
0.878953
0.878199
0.877445
0.87669
0.875934
0.875178
0.874422
0.873665
0.872908
0.87215
0.871391
0.870633
0.869873
0.869114
0.868353
0.867593
0.866832
0.86607
0.865309
0.864546
0.863784
0.863021
0.862258
0.861494
0.86073
0.859966
0.859201
0.858436
0.857671
0.856905
0.856139
0.855373
0.854606
0.853839
0.853072
0.852305
0.851537
0.85077
0.850002
0.849233
0.848465
0.847696
0.846927
0.846158
0.845388
0.844619
0.843849
0.843079
0.842309
0.841538
0.840768
0.839997
0.839226
0.838455
0.837684
0.836913
0.836142
0.83537
0.834598
0.833827
0.833055
0.832283
0.831511
0.830738
0.829966
0.829194
0.828421
0.827649
0.826876
0.826103
0.825331
0.824558
0.823785
0.823012
0.822239
0.821466
0.820693
0.81992
0.819147
0.818374
0.817601
0.816828
0.816055
0.815282
0.814508
0.813735
0.812962
0.812189
0.811416
0.810643
0.80987
0.809097
0.808324
0.807551
0.806778
0.806005
0.805232
0.804459
0.803686
0.802913
0.802141
0.801368
0.800596
0.799823
0.799051
0.798278
0.797506
0.796734
0.795962
0.79519
0.794418
0.793646
0.792874
0.792103
0.791331
0.79056
0.789788
0.789017
0.788246
0.787475
0.786704
0.785934
0.785163
0.784392
0.783622
0.782852
0.782082
0.781312
0.780542
0.779772
0.779003
0.778233
0.777464
0.776695
0.775926
0.775157
0.774389
0.77362
0.772852
0.772084
0.771316
0.770548
0.769781
0.769013
0.768246
0.767479
0.766712
0.765945
0.765179
0.764412
0.763646
0.76288
0.762114
0.761349
0.760584
0.759818
0.759053
0.758289
0.757524
0.75676
0.755996
0.755232
0.754468
0.753705
0.752941
0.752178
0.751416
0.750653
0.749891
0.749128
0.748367
0.747605
0.746843
0.746082
0.745321
0.744561
0.7438
0.74304
0.74228
0.74152
0.74076
0.740001
0.739242
0.738483
0.737725
0.736967
0.736209
0.735451
0.734693
0.733936
0.733179
0.732422
0.731666
0.73091
0.730154
0.729398
0.728643
0.727888
0.727133
0.726379
0.725624
0.72487
0.724117
0.723363
0.72261
0.721857
0.721105
0.720352
0.7196
0.718849
0.718097
0.717346
0.716595
0.715845
0.715095
0.714345
0.713595
0.712846
0.712097
0.711348
0.710599
0.709851
0.709103
0.708356
0.707609
0.706862
0.706115
0.705369
0.704623
0.703877
0.703132
0.702387
0.701642
0.700898
0.700154
0.69941
0.698667
0.697924
0.697181
0.696439
0.695696
0.694955
0.694213
0.693472
0.692731
0.691991
0.691251
0.690511
0.689772
0.689032
0.688294
0.687555
0.686817
0.686079
0.685342
0.684605
0.683868
0.683132
0.682396
0.68166
0.680925
0.68019
0.679455
0.678721
0.677987
0.677253
0.67652
0.675787
0.675055
0.674323
0.673591
0.672859
0.672128
0.671398
0.670667
0.669937
0.669208
0.668478
0.66775
0.667021
0.666293
0.665565
0.664838
0.664111
0.663384
0.662658
0.661932
0.661206
0.660481
0.659756
0.659032
0.658308
0.657584
0.656861
0.656138
0.655415
0.654693
0.653972
0.65325
0.652529
0.651809
0.651088
0.650369
0.649649
0.64893
0.648211
0.647493
0.646775
0.646058
0.645341
0.644624
0.643908
0.643192
0.642476
0.641761
0.641047
0.640332
0.639618
0.638905
0.638192
0.637479
0.636767
0.636055
0.635343
0.634632
0.633922
0.633212
0.632502
0.631792
0.631083
0.630375
0.629666
0.628959
0.628251
0.627544
0.626838
0.626132
0.625426
0.624721
0.624016
0.623311
0.622607
0.621904
0.621201
0.620498
0.619796
0.619094
0.618392
0.617691
0.616991
0.61629
0.615591
0.614891
0.614192
0.613494
0.612796
0.612098
0.611401
0.610704
0.610008
0.609312
0.608617
0.607922
0.607227
0.606533
0.605839
0.605146
0.604453
0.603761
0.603069
0.602378
0.601687
0.600996
0.600306
0.599617
0.598927
0.598239
0.59755
0.596862
0.596175
0.595488
0.594802
0.594116
0.59343
0.592745
0.59206
0.591376
0.590692
0.590009
0.589326
0.588644
0.587962
0.58728
0.586599
0.585919
0.585239
0.584559
0.58388
0.583202
0.582523
0.581846
0.581168
0.580492
0.579815
0.57914
0.578464
0.577789
0.577115
0.576441
0.575768
0.575095
0.574422
0.57375
0.573079
0.572408
0.571737
0.571067
0.570398
0.569729
0.56906
0.568392
0.567724
0.567057
0.56639
0.565724
0.565059
0.564394
0.563729
0.563065
0.562401
0.561738
0.561075
0.560413
0.559751
0.55909
0.558429
0.557769
0.55711
0.55645
0.555792
0.555134
0.554476
0.553819
0.553162
0.552506
0.55185
0.551195
0.550541
0.549887
0.549233
0.54858
0.547928
0.547276
0.546624
0.545973
0.545323
0.544673
0.544023
0.543374
0.542726
0.542078
0.541431
0.540784
0.540138
0.539492
0.538847
0.538202
0.537558
0.536915
0.536272
0.535629
0.534987
0.534346
0.533705
0.533064
0.532425
0.531785
0.531147
0.530508
0.529871
0.529234
0.528597
0.527961
0.527326
0.526691
0.526056
0.525423
0.524789
0.524157
0.523525
0.522893
0.522262
0.521632
0.521002
0.520372
0.519744
0.519115
0.518488
0.517861
0.517234
0.516608
0.515983
0.515358
0.514734
0.51411
0.513487
0.512864
0.512243
0.511621
0.511
0.51038
0.509761
0.509142
0.508523
0.507905
0.507288
0.506671
0.506055
0.50544
0.504825
0.50421
0.503597
0.502984
0.502371
0.501759
0.501148
0.500537
0.499927
0.499317
0.498708
0.4981
0.497492
0.496885
0.496279
0.495673
0.495067
0.494463
0.493859
0.493255
0.492652
0.49205
0.491449
0.490848
0.490247
0.489647
0.489048
0.48845
0.487852
0.487255
0.486658
0.486062
0.485467
0.484872
0.484278
0.483685
0.483092
0.4825
0.481908
0.481317
0.480727
0.480137
0.479548
0.47896
0.478372
0.477785
0.477199
0.476613
0.476028
0.475444
0.47486
0.474277
0.473694
0.473113
0.472532
0.471951
0.471371
0.470792
0.470214
0.469636
0.469059
0.468482
0.467907
0.467331
0.466757
0.466183
0.46561
0.465038
0.464466
0.463895
0.463325
0.462755
0.462186
0.461618
0.46105
0.460483
0.459917
0.459352
0.458787
0.458223
0.457659
0.457096
0.456534
0.455973
0.455412
0.454852
0.454293
0.453735
0.453177
0.45262
0.452063
0.451508
0.450953
0.450399
0.449845
0.449292
0.44874
0.448189
0.447638
0.447088
0.446539
0.445991
0.445443
0.444896
0.44435
0.443804
0.44326
0.442716
0.442172
0.44163
0.441088
0.440547
0.440006
0.439467
0.438928
0.43839
0.437853
0.437316
0.43678
0.436245
0.435711
0.435177
0.434644
0.434112
0.433581
0.433051
0.432521
0.431992
0.431464
0.430936
0.430409
0.429884
0.429358
0.428834
0.42831
0.427788
0.427266
0.426744
0.426224
0.425704
0.425185
0.424667
0.42415
0.423633
0.423118
0.422603
0.422089
0.421575
0.421063
0.420551
0.42004
0.41953
0.41902
0.418512
0.418004
0.417497
0.416991
0.416486
0.415981
0.415477
0.414974
0.414472
0.413971
0.413471
0.412971
0.412472
0.411974
0.411477
0.410981
0.410485
0.409991
0.409497
0.409004
0.408511
0.40802
0.40753
0.40704
0.406551
0.406063
0.405576
0.405089
0.404604
0.404119
0.403635
0.403152
0.40267
0.402189
0.401709
0.401229
0.40075
0.400273
0.399796
0.399319
0.398844
0.39837
0.397896
0.397423
0.396952
0.396481
0.39601
0.395541
0.395073
0.394605
0.394139
0.393673
0.393208
0.392744
0.392281
0.391819
0.391357
0.390897
0.390437
0.389979
0.389521
0.389064
0.388608
0.388153
0.387698
0.387245
0.386792
0.386341
0.38589
0.38544
0.384991
0.384543
0.384096
0.38365
0.383205
0.38276
0.382317
0.381874
0.381433
0.380992
0.380552
0.380113
0.379675
0.379238
0.378802
0.378367
0.377932
0.377499
0.377066
0.376635
0.376204
0.375775
0.375346
0.374918
0.374491
0.374065
0.37364
0.373216
0.372793
0.372371
0.371949
0.371529
0.37111
0.370691
0.370274
0.369857
0.369442
0.369027
0.368614
0.368201
0.367789
0.367379
0.366969
0.36656
0.366152
0.365745
0.365339
0.364934
0.36453
0.364128
0.363726
0.363325
0.362925
0.362526
0.362127
0.36173
0.361334
0.360939
0.360545
0.360152
0.35976
0.359369
0.358979
0.35859
0.358202
0.357815
0.35743
0.357045
0.356661
0.356278
0.355896
0.355515
0.355136
0.354757
0.354379
0.354003
0.353627
0.353253
0.35288
0.352507
0.352136
0.351766
0.351397
0.351029
0.350662
0.350296
0.349932
0.349568
0.349206
0.348844
0.348484
0.348125
0.347767
0.34741
0.347054
0.3467
0.346347
0.345994
0.345643
0.345294
0.344945
0.344597
0.344251
0.343906
0.343562
0.34322
0.342878
0.342538
0.342199
0.341862
0.341526
0.341191
0.340857
0.340525
0.340193
0.339864
0.339535
0.339208
0.338883
0.338558
0.338236
0.337914
0.337594
0.337276
0.336958
0.336643
0.336329
0.336016
0.335705
0.335396
0.335088
0.334782
0.334477
0.334174
0.333873
0.333573
0.333275
0.332979
0.332685
0.332393
0.332102
0.331814
0.331527
0.331242
0.330959
0.330679
0.3304
0.330124
0.329849
0.329577
0.329308
0.32904
0.328775
0.328513
0.328253
0.327995
0.32774
0.327488
0.327239
0.326993
0.326749
0.326509
0.326271
0.326037
0.325806
0.325579
0.325355
0.325135
0.324918
0.324705
0.324497
0.324292
0.324091
0.323895
0.323704
0.323517
0.323334
0.323157
0.322985
0.322818
0.322657
0.322501
0.322351
0.322206
0.322068
0.321937
0.321812
0.321693
0.321581
0.321477
0.321379
0.321289
0.321207
0.321132
0.321065
0.321006
0.320956
0.320913
0.320879
0.320854
0.320836
0.320828
0.320828
0.320837
0.320854
0.32088
0.320915
0.320958
0.32101
0.321069
0.321137
0.321213
0.321297
0.321388
0.321486
0.321592
0.321704
0.321823
0.321949
0.322081
0.322218
0.322361
0.32251
0.322663
0.322822
0.322985
0.323152
0.323324
0.323499
0.323679
0.323862
0.324049
0.324239
0.324433
0.32463
0.32483
0.325033
0.325239
0.325448
0.32566
0.325876
0.326094
0.326315
0.32654
0.326767
0.326998
0.327231
0.327468
0.327708
0.327952
0.328199
0.328449
0.328703
0.32896
0.329221
0.329485
0.329754
0.330026
0.330301
0.330581
0.330865
0.331153
0.331445
0.331741
0.332042
0.332346
0.332656
0.332969
0.333287
0.33361
0.333937
0.33427
0.334606
0.334948
0.335295
0.335647
0.336003
0.336365
0.336732
0.337105
0.337482
0.337865
0.338254
0.338648
0.339048
0.339453
0.339864
0.340282
0.340705
0.341134
0.341569
0.34201
0.342458
0.342912
0.343372
0.343839
0.344313
0.344793
0.34528
0.345774
0.346276
0.346784
0.347299
0.347822
0.348352
0.348889
0.349434
0.349987
0.350548
0.351117
0.351694
0.352279
0.352872
0.353474
0.354084
0.354703
0.355331
0.355968
0.356614
0.357269
0.357933
0.358607
0.359291
0.359984
0.360688
0.361402
0.362125
0.36286
0.363605
0.36436
0.365127
0.365905
0.366694
0.367494
0.368306
0.36913
0.369966
0.370814
0.371675
0.372548
0.373433
0.374332
0.375244
0.376169
0.377108
0.37806
0.379026
0.380007
0.381002
0.382011
0.383035
0.384073
0.385127
0.386196
0.38728
0.38838
0.389496
0.390628
0.391775
0.392939
0.394119
0.395316
0.396529
0.397758
0.399004
0.400267
0.401547
0.402843
0.404156
0.405485
0.406831
0.408193
0.409571
0.410965
0.412375
0.4138
0.415239
0.416693
0.418161
0.419642
0.421135
0.42264
0.424155
0.425681
0.427215
0.428757
0.430304
0.431857
0.433412
0.43497
0.436526
0.438081
0.43963
0.441173
0.442707
0.444229
0.445737
0.447227
0.448697
0.450143
0.451563
0.452952
0.454309
0.455628
0.456907
0.458142
0.459331
0.460468
0.461552
0.462579
0.463547
0.464453
0.465295
0.466072
0.466781
0.467424
0.468
0.468509
0.468953
0.469334
0.469656
0.469921
0.470133
0.470298
0.470421
0.470508
0.470563
0.470593
0.470604
0.470602
0.470591
0.470577
0.470562
0.470551
0.470545
0.470545
0.470551
0.470562
0.470577
0.470591
0.470602
0.470604
0.470593
0.470563
0.470508
0.470421
0.470298
0.470133
0.469921
0.469656
0.469334
0.468953
0.468509
0.468
0.467424
0.466781
0.466072
0.465295
0.464453
0.463547
0.462579
0.461552
0.460468
0.459331
0.458142
0.456907
0.455628
0.454309
0.452952
0.451563
0.450143
0.448697
0.447227
0.445737
0.444229
0.442707
0.441173
0.43963
0.438081
0.436526
0.43497
0.433412
0.431857
0.430304
0.428757
0.427215
0.425681
0.424155
0.42264
0.421135
0.419642
0.418161
0.416693
0.415239
0.4138
0.412375
0.410965
0.409571
0.408193
0.406831
0.405485
0.404156
0.402843
0.401547
0.400267
0.399004
0.397758
0.396529
0.395316
0.394119
0.392939
0.391775
0.390628
0.389496
0.38838
0.38728
0.386196
0.385127
0.384073
0.383035
0.382011
0.381002
0.380007
0.379026
0.37806
0.377108
0.376169
0.375244
0.374332
0.373433
0.372548
0.371675
0.370814
0.369966
0.36913
0.368306
0.367494
0.366694
0.365905
0.365127
0.36436
0.363605
0.36286
0.362125
0.361402
0.360688
0.359984
0.359291
0.358607
0.357933
0.357269
0.356614
0.355968
0.355331
0.354703
0.354084
0.353474
0.352872
0.352279
0.351694
0.351117
0.350548
0.349987
0.349434
0.348889
0.348352
0.347822
0.347299
0.346784
0.346276
0.345774
0.34528
0.344793
0.344313
0.343839
0.343372
0.342912
0.342458
0.34201
0.341569
0.341134
0.340705
0.340282
0.339864
0.339453
0.339048
0.338648
0.338254
0.337865
0.337482
0.337105
0.336732
0.336365
0.336003
0.335647
0.335295
0.334948
0.334606
0.33427
0.333937
0.33361
0.333287
0.332969
0.332656
0.332346
0.332042
0.331741
0.331445
0.331153
0.330865
0.330581
0.330301
0.330026
0.329754
0.329485
0.329221
0.32896
0.328703
0.328449
0.328199
0.327952
0.327708
0.327468
0.327231
0.326998
0.326767
0.32654
0.326315
0.326094
0.325876
0.32566
0.325448
0.325239
0.325033
0.32483
0.32463
0.324433
0.324239
0.324049
0.323862
0.323679
0.323499
0.323324
0.323152
0.322985
0.322822
0.322663
0.32251
0.322361
0.322218
0.322081
0.321949
0.321823
0.321704
0.321592
0.321486
0.321388
0.321297
0.321213
0.321137
0.321069
0.32101
0.320958
0.320915
0.32088
0.320854
0.320837
0.320828
0.320828
0.320836
0.320854
0.320879
0.320913
0.320956
0.321006
0.321065
0.321132
0.321207
0.321289
0.321379
0.321477
0.321581
0.321693
0.321812
0.321937
0.322068
0.322206
0.322351
0.322501
0.322657
0.322818
0.322985
0.323157
0.323334
0.323517
0.323704
0.323895
0.324091
0.324292
0.324497
0.324705
0.324918
0.325135
0.325355
0.325579
0.325806
0.326037
0.326271
0.326509
0.326749
0.326993
0.327239
0.327488
0.32774
0.327995
0.328253
0.328513
0.328775
0.32904
0.329308
0.329577
0.329849
0.330124
0.3304
0.330679
0.330959
0.331242
0.331527
0.331814
0.332102
0.332393
0.332685
0.332979
0.333275
0.333573
0.333873
0.334174
0.334477
0.334782
0.335088
0.335396
0.335705
0.336016
0.336329
0.336643
0.336958
0.337276
0.337594
0.337914
0.338236
0.338558
0.338883
0.339208
0.339535
0.339864
0.340193
0.340525
0.340857
0.341191
0.341526
0.341862
0.342199
0.342538
0.342878
0.34322
0.343562
0.343906
0.344251
0.344597
0.344945
0.345294
0.345643
0.345994
0.346347
0.3467
0.347054
0.34741
0.347767
0.348125
0.348484
0.348844
0.349206
0.349568
0.349932
0.350296
0.350662
0.351029
0.351397
0.351766
0.352136
0.352507
0.35288
0.353253
0.353627
0.354003
0.354379
0.354757
0.355136
0.355515
0.355896
0.356278
0.356661
0.357045
0.35743
0.357815
0.358202
0.35859
0.358979
0.359369
0.35976
0.360152
0.360545
0.360939
0.361334
0.36173
0.362127
0.362526
0.362925
0.363325
0.363726
0.364128
0.36453
0.364934
0.365339
0.365745
0.366152
0.36656
0.366969
0.367379
0.367789
0.368201
0.368614
0.369027
0.369442
0.369857
0.370274
0.370691
0.37111
0.371529
0.371949
0.372371
0.372793
0.373216
0.37364
0.374065
0.374491
0.374918
0.375346
0.375775
0.376204
0.376635
0.377066
0.377499
0.377932
0.378367
0.378802
0.379238
0.379675
0.380113
0.380552
0.380992
0.381433
0.381874
0.382317
0.38276
0.383205
0.38365
0.384096
0.384543
0.384991
0.38544
0.38589
0.386341
0.386792
0.387245
0.387698
0.388153
0.388608
0.389064
0.389521
0.389979
0.390437
0.390897
0.391357
0.391819
0.392281
0.392744
0.393208
0.393673
0.394139
0.394605
0.395073
0.395541
0.39601
0.396481
0.396952
0.397423
0.397896
0.39837
0.398844
0.399319
0.399796
0.400273
0.40075
0.401229
0.401709
0.402189
0.40267
0.403152
0.403635
0.404119
0.404604
0.405089
0.405576
0.406063
0.406551
0.40704
0.40753
0.40802
0.408511
0.409004
0.409497
0.409991
0.410485
0.410981
0.411477
0.411974
0.412472
0.412971
0.413471
0.413971
0.414472
0.414974
0.415477
0.415981
0.416486
0.416991
0.417497
0.418004
0.418512
0.41902
0.41953
0.42004
0.420551
0.421063
0.421575
0.422089
0.422603
0.423118
0.423633
0.42415
0.424667
0.425185
0.425704
0.426224
0.426744
0.427266
0.427788
0.42831
0.428834
0.429358
0.429884
0.430409
0.430936
0.431464
0.431992
0.432521
0.433051
0.433581
0.434112
0.434644
0.435177
0.435711
0.436245
0.43678
0.437316
0.437853
0.43839
0.438928
0.439467
0.440006
0.440547
0.441088
0.44163
0.442172
0.442716
0.44326
0.443804
0.44435
0.444896
0.445443
0.445991
0.446539
0.447088
0.447638
0.448189
0.44874
0.449292
0.449845
0.450399
0.450953
0.451508
0.452063
0.45262
0.453177
0.453735
0.454293
0.454852
0.455412
0.455973
0.456534
0.457096
0.457659
0.458223
0.458787
0.459352
0.459917
0.460483
0.46105
0.461618
0.462186
0.462755
0.463325
0.463895
0.464466
0.465038
0.46561
0.466183
0.466757
0.467331
0.467907
0.468482
0.469059
0.469636
0.470214
0.470792
0.471371
0.471951
0.472532
0.473113
0.473694
0.474277
0.47486
0.475444
0.476028
0.476613
0.477199
0.477785
0.478372
0.47896
0.479548
0.480137
0.480727
0.481317
0.481908
0.4825
0.483092
0.483685
0.484278
0.484872
0.485467
0.486062
0.486658
0.487255
0.487852
0.48845
0.489048
0.489647
0.490247
0.490848
0.491449
0.49205
0.492652
0.493255
0.493859
0.494463
0.495067
0.495673
0.496279
0.496885
0.497492
0.4981
0.498708
0.499317
0.499927
0.500537
0.501148
0.501759
0.502371
0.502984
0.503597
0.50421
0.504825
0.50544
0.506055
0.506671
0.507288
0.507905
0.508523
0.509142
0.509761
0.51038
0.511
0.511621
0.512243
0.512864
0.513487
0.51411
0.514734
0.515358
0.515983
0.516608
0.517234
0.517861
0.518488
0.519115
0.519744
0.520372
0.521002
0.521632
0.522262
0.522893
0.523525
0.524157
0.524789
0.525423
0.526056
0.526691
0.527326
0.527961
0.528597
0.529234
0.529871
0.530508
0.531147
0.531785
0.532425
0.533064
0.533705
0.534346
0.534987
0.535629
0.536272
0.536915
0.537558
0.538202
0.538847
0.539492
0.540138
0.540784
0.541431
0.542078
0.542726
0.543374
0.544023
0.544673
0.545323
0.545973
0.546624
0.547276
0.547928
0.54858
0.549233
0.549887
0.550541
0.551195
0.55185
0.552506
0.553162
0.553819
0.554476
0.555134
0.555792
0.55645
0.55711
0.557769
0.558429
0.55909
0.559751
0.560413
0.561075
0.561738
0.562401
0.563065
0.563729
0.564394
0.565059
0.565724
0.56639
0.567057
0.567724
0.568392
0.56906
0.569729
0.570398
0.571067
0.571737
0.572408
0.573079
0.57375
0.574422
0.575095
0.575768
0.576441
0.577115
0.577789
0.578464
0.57914
0.579815
0.580492
0.581168
0.581846
0.582523
0.583202
0.58388
0.584559
0.585239
0.585919
0.586599
0.58728
0.587962
0.588644
0.589326
0.590009
0.590692
0.591376
0.59206
0.592745
0.59343
0.594116
0.594802
0.595488
0.596175
0.596862
0.59755
0.598239
0.598927
0.599617
0.600306
0.600996
0.601687
0.602378
0.603069
0.603761
0.604453
0.605146
0.605839
0.606533
0.607227
0.607922
0.608617
0.609312
0.610008
0.610704
0.611401
0.612098
0.612796
0.613494
0.614192
0.614891
0.615591
0.61629
0.616991
0.617691
0.618392
0.619094
0.619796
0.620498
0.621201
0.621904
0.622607
0.623311
0.624016
0.624721
0.625426
0.626132
0.626838
0.627544
0.628251
0.628959
0.629666
0.630375
0.631083
0.631792
0.632502
0.633212
0.633922
0.634632
0.635343
0.636055
0.636767
0.637479
0.638192
0.638905
0.639618
0.640332
0.641047
0.641761
0.642476
0.643192
0.643908
0.644624
0.645341
0.646058
0.646775
0.647493
0.648211
0.64893
0.649649
0.650369
0.651088
0.651809
0.652529
0.65325
0.653972
0.654693
0.655415
0.656138
0.656861
0.657584
0.658308
0.659032
0.659756
0.660481
0.661206
0.661932
0.662658
0.663384
0.664111
0.664838
0.665565
0.666293
0.667021
0.66775
0.668478
0.669208
0.669937
0.670667
0.671398
0.672128
0.672859
0.673591
0.674323
0.675055
0.675787
0.67652
0.677253
0.677987
0.678721
0.679455
0.68019
0.680925
0.68166
0.682396
0.683132
0.683868
0.684605
0.685342
0.686079
0.686817
0.687555
0.688294
0.689032
0.689772
0.690511
0.691251
0.691991
0.692731
0.693472
0.694213
0.694955
0.695696
0.696439
0.697181
0.697924
0.698667
0.69941
0.700154
0.700898
0.701642
0.702387
0.703132
0.703877
0.704623
0.705369
0.706115
0.706862
0.707609
0.708356
0.709103
0.709851
0.710599
0.711348
0.712097
0.712846
0.713595
0.714345
0.715095
0.715845
0.716595
0.717346
0.718097
0.718849
0.7196
0.720352
0.721105
0.721857
0.72261
0.723363
0.724117
0.72487
0.725624
0.726379
0.727133
0.727888
0.728643
0.729398
0.730154
0.73091
0.731666
0.732422
0.733179
0.733936
0.734693
0.735451
0.736209
0.736967
0.737725
0.738483
0.739242
0.740001
0.74076
0.74152
0.74228
0.74304
0.7438
0.744561
0.745321
0.746082
0.746843
0.747605
0.748367
0.749128
0.749891
0.750653
0.751416
0.752178
0.752941
0.753705
0.754468
0.755232
0.755996
0.75676
0.757524
0.758289
0.759053
0.759818
0.760584
0.761349
0.762114
0.76288
0.763646
0.764412
0.765179
0.765945
0.766712
0.767479
0.768246
0.769013
0.769781
0.770548
0.771316
0.772084
0.772852
0.77362
0.774389
0.775157
0.775926
0.776695
0.777464
0.778233
0.779003
0.779772
0.780542
0.781312
0.782082
0.782852
0.783622
0.784392
0.785163
0.785934
0.786704
0.787475
0.788246
0.789017
0.789788
0.79056
0.791331
0.792103
0.792874
0.793646
0.794418
0.79519
0.795962
0.796734
0.797506
0.798278
0.799051
0.799823
0.800596
0.801368
0.802141
0.802913
0.803686
0.804459
0.805232
0.806005
0.806778
0.807551
0.808324
0.809097
0.80987
0.810643
0.811416
0.812189
0.812962
0.813735
0.814508
0.815282
0.816055
0.816828
0.817601
0.818374
0.819147
0.81992
0.820693
0.821466
0.822239
0.823012
0.823785
0.824558
0.825331
0.826103
0.826876
0.827649
0.828421
0.829194
0.829966
0.830738
0.831511
0.832283
0.833055
0.833827
0.834598
0.83537
0.836142
0.836913
0.837684
0.838455
0.839226
0.839997
0.840768
0.841538
0.842309
0.843079
0.843849
0.844619
0.845388
0.846158
0.846927
0.847696
0.848465
0.849233
0.850002
0.85077
0.851537
0.852305
0.853072
0.853839
0.854606
0.855373
0.856139
0.856905
0.857671
0.858436
0.859201
0.859966
0.86073
0.861494
0.862258
0.863021
0.863784
0.864546
0.865309
0.86607
0.866832
0.867593
0.868353
0.869114
0.869873
0.870633
0.871391
0.87215
0.872908
0.873665
0.874422
0.875178
0.875934
0.87669
0.877445
0.878199
0.878953
0.879706
0.880459
0.881211
0.881962
0.882713
0.883463
0.884213
0.884962
0.88571
0.886458
0.887205
0.887951
0.888697
0.889442
0.890186
0.890929
0.891672
0.892414
0.893155
0.893895
0.894635
0.895373
0.896111
0.896848
0.897585
0.89832
0.899054
0.899788
0.90052
0.901252
0.901983
0.902713
0.903441
0.904169
0.904896
0.905622
0.906346
0.90707
0.907792
0.908514
0.909234
0.909953
0.910672
0.911388
0.912104
0.912819
0.913532
0.914244
0.914955
0.915664
0.916372
0.917079
0.917785
0.918489
0.919192
0.919893
0.920593
0.921292
0.921989
0.922685
0.923379
0.924071
0.924762
0.925452
0.926139
0.926826
0.92751
0.928193
0.928874
0.929554
0.930232
0.930908
0.931582
0.932254
0.932925
0.933594
0.934261
0.934925
0.935588
0.936249
0.936909
0.937565
0.93822
0.938873
0.939524
0.940173
0.940819
0.941463
0.942106
0.942745
0.943383
0.944018
0.944651
0.945282
0.94591
0.946535
0.947159
0.94778
0.948398
0.949014
0.949627
0.950237
0.950845
0.95145
0.952053
0.952653
0.95325
0.953844
0.954435
0.955024
0.955609
0.956192
0.956771
0.957348
0.957922
0.958492
0.95906
0.959624
0.960185
0.960743
0.961298
0.961849
0.962398
0.962942
0.963484
0.964022
0.964556
0.965087
0.965615
0.966139
0.96666
0.967177
0.96769
0.968199
0.968705
0.969207
0.969706
0.9702
0.970691
0.971178
0.971661
0.97214
0.972615
0.973086
0.973553
0.974016
0.974475
0.97493
0.97538
0.975827
0.976269
0.976707
0.977141
0.977571
0.977996
0.978417
0.978834
0.979246
0.979654
0.980057
0.980457
0.980851
0.981241
0.981627
0.982008
0.982385
0.982757
0.983125
0.983488
0.983846
0.9842
0.984549
0.984894
0.985234
0.985569
0.9859
0.986226
0.986548
0.986865
0.987177
0.987485
0.987788
0.988086
0.98838
0.988669
0.988954
0.989234
0.989509
0.98978
0.990046
0.990307
0.990564
0.990817
0.991065
0.991308
0.991547
0.991781
0.992011
0.992237
0.992458
0.992675
0.992888
0.993096
0.9933
0.993499
0.993695
0.993886
0.994073
0.994256
0.994435
0.99461
0.994781
0.994947
0.99511
0.99527
0.995425
0.995576
0.995724
0.995868
0.996008
0.996145
0.996278
0.996408
0.996534
0.996657
0.996777
0.996893
0.997006
0.997116
0.997222
0.997326
0.997426
0.997524
0.997618
0.99771
0.997799
0.997885
0.997969
0.99805
0.998128
0.998203
0.998277
0.998347
0.998416
0.998482
0.998546
0.998607
0.998667
0.998724
0.998779
0.998833
0.998884
0.998934
0.998981
0.999027
0.999071
0.999114
0.999155
0.999194
0.999231
0.999268
0.999302
0.999336
0.999368
0.999398
0.999428
0.999456
0.999483
0.999508
0.999533
0.999557
0.999579
0.999601
0.999621
0.999641
0.99966
0.999678
0.999695
0.999711
0.999726
0.999741
0.999755
0.999769
0.999781
0.999793
0.999805
0.999816
0.999826
0.999836
0.999845
0.999854
0.999863
0.999871
0.999878
0.999886
0.999892
0.999899
0.999905
0.999911
0.999916
0.999921
0.999926
0.999931
0.999935
0.999939
0.999943
0.999946
0.99995
0.999953
0.999956
0.999959
0.999962
0.999964
0.999966
0.999969
0.999971
0.999973
0.999974
0.999976
0.999978
0.999979
0.999981
0.999982
0.999983
0.999984
0.999986
0.999987
0.999988
0.999988
0.999989
0.99999
0.999991
0.999991
0.999992
0.999993
0.999993
0.999994
0.999994
0.999995
0.999995
0.999995
0.999996
0.999996
0.999996
0.999997
0.999997
0.999997
0.999997
0.999998
0.999998
0.999998
0.999998
0.999998
0.999998
0.999999
0.999999
0.999999
0.999999
0.999999
0.999999
0.999999
0.999999
0.999999
0.999999
0.999999
0.999999
0.999999
1
1
1
1
1
1
1
1
1
1
1
1
1
1
1
1
1
1
1
1
1
1
1
1
1
1
1
1
1
1
1
1
1
1
1
1
1
1
1
1
1
1
1
1
1
1
1
1
1
1
1
1
1
1
1
1
)
;

boundaryField
{
    sides
    {
        type            zeroGradient;
    }
    empty1
    {
        type            empty;
    }
    empty2
    {
        type            empty;
    }
}


// ************************************************************************* //
