/*--------------------------------*- C++ -*----------------------------------*\
| =========                 |                                                 |
| \\      /  F ield         | OpenFOAM: The Open Source CFD Toolbox           |
|  \\    /   O peration     | Version:  4.1                                   |
|   \\  /    A nd           | Web:      www.OpenFOAM.org                      |
|    \\/     M anipulation  |                                                 |
\*---------------------------------------------------------------------------*/
FoamFile
{
    version     2.0;
    format      ascii;
    class       volScalarField;
    location    "0.15";
    object      tauQGD;
}
// * * * * * * * * * * * * * * * * * * * * * * * * * * * * * * * * * * * * * //

dimensions      [0 0 1 0 0 0 0];

internalField   nonuniform List<scalar> 
3200
(
0.000125274
0.000125274
0.000125274
0.000125274
0.000125274
0.000125274
0.000125274
0.000125274
0.000125274
0.000125274
0.000125274
0.000125274
0.000125274
0.000125274
0.000125274
0.000125274
0.000125274
0.000125274
0.000125274
0.000125274
0.000125274
0.000125274
0.000125274
0.000125274
0.000125274
0.000125274
0.000125274
0.000125274
0.000125274
0.000125274
0.000125274
0.000125274
0.000125274
0.000125274
0.000125274
0.000125274
0.000125274
0.000125274
0.000125274
0.000125274
0.000125274
0.000125274
0.000125274
0.000125274
0.000125274
0.000125274
0.000125274
0.000125274
0.000125274
0.000125274
0.000125274
0.000125274
0.000125274
0.000125274
0.000125274
0.000125274
0.000125274
0.000125274
0.000125274
0.000125274
0.000125274
0.000125274
0.000125274
0.000125274
0.000125274
0.000125274
0.000125274
0.000125274
0.000125274
0.000125274
0.000125274
0.000125274
0.000125274
0.000125274
0.000125274
0.000125274
0.000125274
0.000125274
0.000125274
0.000125274
0.000125274
0.000125274
0.000125274
0.000125274
0.000125274
0.000125274
0.000125274
0.000125274
0.000125274
0.000125274
0.000125274
0.000125274
0.000125274
0.000125274
0.000125274
0.000125275
0.000125275
0.000125275
0.000125275
0.000125275
0.000125275
0.000125275
0.000125275
0.000125275
0.000125275
0.000125275
0.000125275
0.000125276
0.000125276
0.000125276
0.000125276
0.000125276
0.000125276
0.000125277
0.000125277
0.000125277
0.000125277
0.000125277
0.000125278
0.000125278
0.000125278
0.000125278
0.000125279
0.000125279
0.000125279
0.00012528
0.00012528
0.00012528
0.000125281
0.000125281
0.000125282
0.000125282
0.000125283
0.000125283
0.000125284
0.000125285
0.000125285
0.000125286
0.000125287
0.000125287
0.000125288
0.000125289
0.00012529
0.000125291
0.000125292
0.000125293
0.000125294
0.000125295
0.000125296
0.000125297
0.000125299
0.0001253
0.000125302
0.000125303
0.000125305
0.000125306
0.000125308
0.00012531
0.000125311
0.000125313
0.000125315
0.000125317
0.00012532
0.000125322
0.000125324
0.000125327
0.000125329
0.000125332
0.000125335
0.000125338
0.000125341
0.000125344
0.000125347
0.00012535
0.000125354
0.000125357
0.000125361
0.000125365
0.000125369
0.000125373
0.000125377
0.000125382
0.000125386
0.000125391
0.000125396
0.000125401
0.000125406
0.000125412
0.000125417
0.000125423
0.000125429
0.000125435
0.000125442
0.000125448
0.000125455
0.000125462
0.000125469
0.000125476
0.000125484
0.000125491
0.000125499
0.000125508
0.000125516
0.000125525
0.000125533
0.000125542
0.000125552
0.000125561
0.000125571
0.000125581
0.000125591
0.000125602
0.000125613
0.000125624
0.000125635
0.000125647
0.000125658
0.000125671
0.000125683
0.000125696
0.000125708
0.000125722
0.000125735
0.000125749
0.000125763
0.000125777
0.000125792
0.000125807
0.000125822
0.000125837
0.000125853
0.000125869
0.000125885
0.000125902
0.000125919
0.000125936
0.000125954
0.000125971
0.00012599
0.000126008
0.000126027
0.000126046
0.000126065
0.000126085
0.000126105
0.000126125
0.000126145
0.000126166
0.000126188
0.000126209
0.000126231
0.000126253
0.000126275
0.000126298
0.000126321
0.000126344
0.000126368
0.000126392
0.000126416
0.000126441
0.000126466
0.000126491
0.000126516
0.000126542
0.000126568
0.000126594
0.000126621
0.000126648
0.000126675
0.000126703
0.000126731
0.000126759
0.000126787
0.000126816
0.000126845
0.000126874
0.000126904
0.000126934
0.000126964
0.000126994
0.000127025
0.000127056
0.000127087
0.000127119
0.000127151
0.000127183
0.000127216
0.000127248
0.000127281
0.000127314
0.000127348
0.000127382
0.000127416
0.00012745
0.000127485
0.00012752
0.000127555
0.00012759
0.000127626
0.000127661
0.000127698
0.000127734
0.000127771
0.000127808
0.000127845
0.000127882
0.00012792
0.000127958
0.000127996
0.000128034
0.000128073
0.000128111
0.00012815
0.00012819
0.000128229
0.000128269
0.000128309
0.000128349
0.00012839
0.00012843
0.000128471
0.000128512
0.000128553
0.000128595
0.000128637
0.000128679
0.000128721
0.000128763
0.000128806
0.000128849
0.000128892
0.000128935
0.000128978
0.000129022
0.000129066
0.00012911
0.000129154
0.000129198
0.000129243
0.000129288
0.000129332
0.000129378
0.000129423
0.000129469
0.000129514
0.00012956
0.000129606
0.000129653
0.000129699
0.000129746
0.000129792
0.000129839
0.000129887
0.000129934
0.000129982
0.000130029
0.000130077
0.000130125
0.000130173
0.000130222
0.00013027
0.000130319
0.000130368
0.000130417
0.000130466
0.000130515
0.000130565
0.000130614
0.000130664
0.000130714
0.000130764
0.000130815
0.000130865
0.000130916
0.000130967
0.000131017
0.000131068
0.00013112
0.000131171
0.000131223
0.000131274
0.000131326
0.000131378
0.00013143
0.000131482
0.000131535
0.000131587
0.00013164
0.000131692
0.000131745
0.000131798
0.000131852
0.000131905
0.000131958
0.000132012
0.000132066
0.00013212
0.000132174
0.000132228
0.000132282
0.000132336
0.000132391
0.000132445
0.0001325
0.000132555
0.00013261
0.000132665
0.000132721
0.000132776
0.000132832
0.000132887
0.000132943
0.000132999
0.000133055
0.000133111
0.000133167
0.000133224
0.00013328
0.000133337
0.000133394
0.00013345
0.000133507
0.000133565
0.000133622
0.000133679
0.000133737
0.000133794
0.000133852
0.00013391
0.000133968
0.000134026
0.000134084
0.000134142
0.0001342
0.000134259
0.000134317
0.000134376
0.000134435
0.000134494
0.000134553
0.000134612
0.000134671
0.00013473
0.00013479
0.00013485
0.000134909
0.000134969
0.000135029
0.000135089
0.000135149
0.000135209
0.000135269
0.00013533
0.00013539
0.000135451
0.000135512
0.000135573
0.000135634
0.000135695
0.000135756
0.000135817
0.000135878
0.00013594
0.000136001
0.000136063
0.000136125
0.000136187
0.000136249
0.000136311
0.000136373
0.000136435
0.000136497
0.00013656
0.000136622
0.000136685
0.000136748
0.000136811
0.000136874
0.000136937
0.000137
0.000137063
0.000137126
0.00013719
0.000137253
0.000137317
0.000137381
0.000137445
0.000137509
0.000137573
0.000137637
0.000137701
0.000137765
0.00013783
0.000137894
0.000137959
0.000138024
0.000138088
0.000138153
0.000138218
0.000138283
0.000138348
0.000138414
0.000138479
0.000138545
0.00013861
0.000138676
0.000138741
0.000138807
0.000138873
0.000138939
0.000139005
0.000139072
0.000139138
0.000139204
0.000139271
0.000139337
0.000139404
0.000139471
0.000139538
0.000139605
0.000139672
0.000139739
0.000139806
0.000139873
0.000139941
0.000140008
0.000140076
0.000140143
0.000140211
0.000140279
0.000140347
0.000140415
0.000140483
0.000140552
0.00014062
0.000140688
0.000140757
0.000140825
0.000140894
0.000140963
0.000141032
0.000141101
0.00014117
0.000141239
0.000141308
0.000141377
0.000141447
0.000141516
0.000141586
0.000141656
0.000141725
0.000141795
0.000141865
0.000141935
0.000142005
0.000142076
0.000142146
0.000142216
0.000142287
0.000142358
0.000142428
0.000142499
0.00014257
0.000142641
0.000142712
0.000142783
0.000142854
0.000142926
0.000142997
0.000143068
0.00014314
0.000143212
0.000143284
0.000143355
0.000143427
0.000143499
0.000143571
0.000143644
0.000143716
0.000143788
0.000143861
0.000143933
0.000144006
0.000144079
0.000144152
0.000144225
0.000144298
0.000144371
0.000144444
0.000144517
0.000144591
0.000144664
0.000144738
0.000144811
0.000144885
0.000144959
0.000145033
0.000145107
0.000145181
0.000145255
0.00014533
0.000145404
0.000145478
0.000145553
0.000145628
0.000145702
0.000145777
0.000145852
0.000145927
0.000146002
0.000146077
0.000146153
0.000146228
0.000146304
0.000146379
0.000146455
0.000146531
0.000146606
0.000146682
0.000146758
0.000146834
0.000146911
0.000146987
0.000147063
0.00014714
0.000147216
0.000147293
0.00014737
0.000147446
0.000147523
0.0001476
0.000147678
0.000147755
0.000147832
0.000147909
0.000147987
0.000148064
0.000148142
0.00014822
0.000148298
0.000148376
0.000148454
0.000148532
0.00014861
0.000148688
0.000148767
0.000148845
0.000148924
0.000149002
0.000149081
0.00014916
0.000149239
0.000149318
0.000149397
0.000149476
0.000149555
0.000149635
0.000149714
0.000149794
0.000149874
0.000149953
0.000150033
0.000150113
0.000150193
0.000150273
0.000150354
0.000150434
0.000150514
0.000150595
0.000150675
0.000150756
0.000150837
0.000150918
0.000150999
0.00015108
0.000151161
0.000151242
0.000151324
0.000151405
0.000151486
0.000151568
0.00015165
0.000151732
0.000151814
0.000151896
0.000151978
0.00015206
0.000152142
0.000152224
0.000152307
0.00015239
0.000152472
0.000152555
0.000152638
0.000152721
0.000152804
0.000152887
0.00015297
0.000153053
0.000153137
0.00015322
0.000153304
0.000153388
0.000153471
0.000153555
0.000153639
0.000153723
0.000153808
0.000153892
0.000153976
0.000154061
0.000154145
0.00015423
0.000154315
0.000154399
0.000154484
0.000154569
0.000154654
0.00015474
0.000154825
0.00015491
0.000154996
0.000155082
0.000155167
0.000155253
0.000155339
0.000155425
0.000155511
0.000155597
0.000155683
0.00015577
0.000155856
0.000155943
0.00015603
0.000156116
0.000156203
0.00015629
0.000156377
0.000156464
0.000156552
0.000156639
0.000156726
0.000156814
0.000156902
0.000156989
0.000157077
0.000157165
0.000157253
0.000157341
0.000157429
0.000157518
0.000157606
0.000157695
0.000157783
0.000157872
0.000157961
0.00015805
0.000158139
0.000158228
0.000158317
0.000158406
0.000158496
0.000158585
0.000158675
0.000158764
0.000158854
0.000158944
0.000159034
0.000159124
0.000159214
0.000159305
0.000159395
0.000159485
0.000159576
0.000159667
0.000159757
0.000159848
0.000159939
0.00016003
0.000160121
0.000160213
0.000160304
0.000160396
0.000160487
0.000160579
0.000160671
0.000160762
0.000160854
0.000160946
0.000161039
0.000161131
0.000161223
0.000161316
0.000161408
0.000161501
0.000161594
0.000161686
0.000161779
0.000161872
0.000161966
0.000162059
0.000162152
0.000162246
0.000162339
0.000162433
0.000162527
0.000162621
0.000162714
0.000162809
0.000162903
0.000162997
0.000163091
0.000163186
0.00016328
0.000163375
0.00016347
0.000163565
0.00016366
0.000163755
0.00016385
0.000163945
0.00016404
0.000164136
0.000164231
0.000164327
0.000164423
0.000164519
0.000164615
0.000164711
0.000164807
0.000164903
0.000164999
0.000165096
0.000165193
0.000165289
0.000165386
0.000165483
0.00016558
0.000165677
0.000165774
0.000165871
0.000165969
0.000166066
0.000166164
0.000166261
0.000166359
0.000166457
0.000166555
0.000166653
0.000166751
0.00016685
0.000166948
0.000167046
0.000167145
0.000167244
0.000167342
0.000167441
0.00016754
0.000167639
0.000167739
0.000167838
0.000167937
0.000168037
0.000168136
0.000168236
0.000168336
0.000168436
0.000168536
0.000168636
0.000168736
0.000168836
0.000168936
0.000169037
0.000169138
0.000169238
0.000169339
0.00016944
0.000169541
0.000169642
0.000169743
0.000169844
0.000169946
0.000170047
0.000170149
0.000170251
0.000170352
0.000170454
0.000170556
0.000170658
0.00017076
0.000170863
0.000170965
0.000171068
0.00017117
0.000171273
0.000171376
0.000171478
0.000171581
0.000171684
0.000171788
0.000171891
0.000171994
0.000172098
0.000172201
0.000172305
0.000172409
0.000172513
0.000172616
0.000172721
0.000172825
0.000172929
0.000173033
0.000173138
0.000173242
0.000173347
0.000173452
0.000173556
0.000173661
0.000173766
0.000173871
0.000173977
0.000174082
0.000174187
0.000174293
0.000174398
0.000174504
0.00017461
0.000174716
0.000174822
0.000174928
0.000175034
0.00017514
0.000175247
0.000175353
0.00017546
0.000175566
0.000175673
0.00017578
0.000175887
0.000175994
0.000176101
0.000176208
0.000176315
0.000176423
0.00017653
0.000176638
0.000176745
0.000176853
0.000176961
0.000177069
0.000177177
0.000177285
0.000177393
0.000177501
0.00017761
0.000177718
0.000177827
0.000177935
0.000178044
0.000178153
0.000178262
0.000178371
0.00017848
0.000178589
0.000178699
0.000178808
0.000178917
0.000179027
0.000179137
0.000179246
0.000179356
0.000179466
0.000179576
0.000179686
0.000179796
0.000179906
0.000180017
0.000180127
0.000180238
0.000180348
0.000180459
0.00018057
0.00018068
0.000180791
0.000180902
0.000181013
0.000181124
0.000181236
0.000181347
0.000181458
0.00018157
0.000181681
0.000181793
0.000181905
0.000182017
0.000182128
0.00018224
0.000182352
0.000182465
0.000182577
0.000182689
0.000182801
0.000182914
0.000183026
0.000183139
0.000183252
0.000183364
0.000183477
0.00018359
0.000183703
0.000183816
0.000183929
0.000184042
0.000184155
0.000184269
0.000184382
0.000184496
0.000184609
0.000184723
0.000184836
0.00018495
0.000185064
0.000185178
0.000185292
0.000185406
0.00018552
0.000185634
0.000185748
0.000185863
0.000185977
0.000186091
0.000186206
0.00018632
0.000186435
0.00018655
0.000186664
0.000186779
0.000186894
0.000187009
0.000187124
0.000187239
0.000187354
0.000187469
0.000187585
0.0001877
0.000187815
0.000187931
0.000188046
0.000188162
0.000188277
0.000188393
0.000188509
0.000188624
0.00018874
0.000188856
0.000188972
0.000189088
0.000189204
0.00018932
0.000189436
0.000189552
0.000189668
0.000189785
0.000189901
0.000190017
0.000190134
0.00019025
0.000190367
0.000190483
0.0001906
0.000190716
0.000190833
0.00019095
0.000191067
0.000191183
0.0001913
0.000191417
0.000191534
0.000191651
0.000191768
0.000191885
0.000192002
0.000192119
0.000192236
0.000192354
0.000192471
0.000192588
0.000192705
0.000192823
0.00019294
0.000193058
0.000193175
0.000193292
0.00019341
0.000193527
0.000193645
0.000193763
0.00019388
0.000193998
0.000194115
0.000194233
0.000194351
0.000194469
0.000194586
0.000194704
0.000194822
0.00019494
0.000195058
0.000195175
0.000195293
0.000195411
0.000195529
0.000195647
0.000195765
0.000195883
0.000196001
0.000196119
0.000196237
0.000196355
0.000196473
0.000196591
0.000196709
0.000196827
0.000196945
0.000197063
0.000197181
0.000197299
0.000197417
0.000197535
0.000197653
0.000197772
0.00019789
0.000198008
0.000198126
0.000198244
0.000198362
0.00019848
0.000198598
0.000198716
0.000198834
0.000198952
0.00019907
0.000199188
0.000199307
0.000199425
0.000199543
0.000199661
0.000199779
0.000199897
0.000200014
0.000200132
0.00020025
0.000200368
0.000200486
0.000200604
0.000200722
0.00020084
0.000200958
0.000201075
0.000201193
0.000201311
0.000201429
0.000201546
0.000201664
0.000201782
0.000201899
0.000202017
0.000202134
0.000202252
0.000202369
0.000202487
0.000202604
0.000202722
0.000202839
0.000202956
0.000203073
0.000203191
0.000203308
0.000203425
0.000203542
0.000203659
0.000203776
0.000203893
0.00020401
0.000204127
0.000204243
0.00020436
0.000204477
0.000204594
0.00020471
0.000204827
0.000204943
0.00020506
0.000205176
0.000205292
0.000205408
0.000205525
0.000205641
0.000205757
0.000205873
0.000205988
0.000206104
0.00020622
0.000206336
0.000206451
0.000206567
0.000206682
0.000206798
0.000206913
0.000207028
0.000207143
0.000207258
0.000207373
0.000207488
0.000207603
0.000207718
0.000207832
0.000207947
0.000208061
0.000208175
0.00020829
0.000208404
0.000208518
0.000208632
0.000208745
0.000208859
0.000208973
0.000209086
0.0002092
0.000209313
0.000209426
0.000209539
0.000209652
0.000209765
0.000209877
0.00020999
0.000210102
0.000210215
0.000210327
0.000210439
0.000210551
0.000210662
0.000210774
0.000210886
0.000210997
0.000211108
0.000211219
0.00021133
0.000211441
0.000211551
0.000211662
0.000211772
0.000211882
0.000211992
0.000212102
0.000212211
0.000212321
0.00021243
0.000212539
0.000212648
0.000212757
0.000212865
0.000212973
0.000213082
0.00021319
0.000213297
0.000213405
0.000213512
0.000213619
0.000213726
0.000213833
0.000213939
0.000214045
0.000214151
0.000214257
0.000214362
0.000214468
0.000214572
0.000214677
0.000214782
0.000214886
0.00021499
0.000215093
0.000215197
0.0002153
0.000215402
0.000215505
0.000215607
0.000215709
0.00021581
0.000215911
0.000216012
0.000216113
0.000216213
0.000216312
0.000216412
0.000216511
0.000216609
0.000216707
0.000216805
0.000216902
0.000216999
0.000217096
0.000217192
0.000217287
0.000217382
0.000217477
0.000217571
0.000217664
0.000217757
0.00021785
0.000217942
0.000218033
0.000218123
0.000218213
0.000218303
0.000218391
0.000218479
0.000218567
0.000218653
0.000218739
0.000218824
0.000218908
0.000218992
0.000219074
0.000219156
0.000219236
0.000219316
0.000219395
0.000219473
0.000219549
0.000219625
0.000219699
0.000219772
0.000219844
0.000219915
0.000219984
0.000220053
0.000220119
0.000220184
0.000220248
0.00022031
0.00022037
0.000220429
0.000220486
0.000220541
0.000220595
0.000220646
0.000220695
0.000220743
0.000220788
0.000220831
0.000220871
0.00022091
0.000220946
0.000220979
0.00022101
0.000221038
0.000221064
0.000221087
0.000221107
0.000221125
0.000221139
0.000221151
0.00022116
0.000221166
0.000221169
0.000221169
0.000221166
0.00022116
0.000221151
0.000221139
0.000221124
0.000221106
0.000221086
0.000221062
0.000221036
0.000221008
0.000220976
0.000220942
0.000220906
0.000220867
0.000220827
0.000220783
0.000220738
0.000220691
0.000220642
0.000220591
0.000220539
0.000220485
0.000220429
0.000220372
0.000220314
0.000220254
0.000220193
0.00022013
0.000220067
0.000220002
0.000219937
0.00021987
0.000219802
0.000219734
0.000219664
0.000219593
0.000219522
0.000219449
0.000219376
0.000219301
0.000219226
0.00021915
0.000219072
0.000218994
0.000218915
0.000218835
0.000218754
0.000218671
0.000218588
0.000218504
0.000218418
0.000218332
0.000218244
0.000218155
0.000218065
0.000217974
0.000217882
0.000217788
0.000217694
0.000217598
0.000217501
0.000217402
0.000217302
0.000217201
0.000217099
0.000216995
0.00021689
0.000216784
0.000216676
0.000216567
0.000216457
0.000216345
0.000216232
0.000216117
0.000216
0.000215883
0.000215763
0.000215643
0.00021552
0.000215397
0.000215271
0.000215144
0.000215016
0.000214886
0.000214754
0.00021462
0.000214485
0.000214349
0.00021421
0.00021407
0.000213929
0.000213785
0.00021364
0.000213493
0.000213344
0.000213194
0.000213041
0.000212887
0.000212731
0.000212573
0.000212413
0.000212252
0.000212088
0.000211923
0.000211755
0.000211586
0.000211414
0.000211241
0.000211065
0.000210888
0.000210708
0.000210527
0.000210343
0.000210157
0.000209969
0.000209779
0.000209586
0.000209392
0.000209195
0.000208995
0.000208794
0.00020859
0.000208384
0.000208176
0.000207965
0.000207752
0.000207537
0.000207319
0.000207098
0.000206875
0.00020665
0.000206422
0.000206191
0.000205958
0.000205723
0.000205484
0.000205243
0.000205
0.000204754
0.000204505
0.000204253
0.000203999
0.000203742
0.000203482
0.000203219
0.000202954
0.000202685
0.000202414
0.00020214
0.000201864
0.000201584
0.000201302
0.000201016
0.000200728
0.000200437
0.000200144
0.000199847
0.000199548
0.000199245
0.00019894
0.000198633
0.000198322
0.000198009
0.000197693
0.000197375
0.000197054
0.000196731
0.000196405
0.000196077
0.000195747
0.000195415
0.000195081
0.000194744
0.000194407
0.000194067
0.000193726
0.000193384
0.000193041
0.000192697
0.000192352
0.000192007
0.000191662
0.000191317
0.000190973
0.00019063
0.000190287
0.000189946
0.000189607
0.000189271
0.000188937
0.000188606
0.000188279
0.000187956
0.000187638
0.000187325
0.000187018
0.000186717
0.000186424
0.000186137
0.000185859
0.00018559
0.00018533
0.00018508
0.000184841
0.000184612
0.000184395
0.00018419
0.000183998
0.000183818
0.000183652
0.000183499
0.000183359
0.000183233
0.000183121
0.000183021
0.000182934
0.00018286
0.000182798
0.000182746
0.000182705
0.000182673
0.000182649
0.000182632
0.000182621
0.000182615
0.000182613
0.000182614
0.000182616
0.000182619
0.000182621
0.000182624
0.000182625
0.000182625
0.000182624
0.000182621
0.000182619
0.000182616
0.000182614
0.000182613
0.000182615
0.000182621
0.000182632
0.000182649
0.000182673
0.000182705
0.000182746
0.000182798
0.00018286
0.000182934
0.000183021
0.000183121
0.000183233
0.000183359
0.000183499
0.000183652
0.000183818
0.000183998
0.00018419
0.000184395
0.000184612
0.000184841
0.00018508
0.00018533
0.00018559
0.000185859
0.000186137
0.000186424
0.000186717
0.000187018
0.000187325
0.000187638
0.000187956
0.000188279
0.000188606
0.000188937
0.000189271
0.000189607
0.000189946
0.000190287
0.00019063
0.000190973
0.000191317
0.000191662
0.000192007
0.000192352
0.000192697
0.000193041
0.000193384
0.000193726
0.000194067
0.000194407
0.000194744
0.000195081
0.000195415
0.000195747
0.000196077
0.000196405
0.000196731
0.000197054
0.000197375
0.000197693
0.000198009
0.000198322
0.000198633
0.00019894
0.000199245
0.000199548
0.000199847
0.000200144
0.000200437
0.000200728
0.000201016
0.000201302
0.000201584
0.000201864
0.00020214
0.000202414
0.000202685
0.000202954
0.000203219
0.000203482
0.000203742
0.000203999
0.000204253
0.000204505
0.000204754
0.000205
0.000205243
0.000205484
0.000205723
0.000205958
0.000206191
0.000206422
0.00020665
0.000206875
0.000207098
0.000207319
0.000207537
0.000207752
0.000207965
0.000208176
0.000208384
0.00020859
0.000208794
0.000208995
0.000209195
0.000209392
0.000209586
0.000209779
0.000209969
0.000210157
0.000210343
0.000210527
0.000210708
0.000210888
0.000211065
0.000211241
0.000211414
0.000211586
0.000211755
0.000211923
0.000212088
0.000212252
0.000212413
0.000212573
0.000212731
0.000212887
0.000213041
0.000213194
0.000213344
0.000213493
0.00021364
0.000213785
0.000213929
0.00021407
0.00021421
0.000214349
0.000214485
0.00021462
0.000214754
0.000214886
0.000215016
0.000215144
0.000215271
0.000215397
0.00021552
0.000215643
0.000215763
0.000215883
0.000216
0.000216117
0.000216232
0.000216345
0.000216457
0.000216567
0.000216676
0.000216784
0.00021689
0.000216995
0.000217099
0.000217201
0.000217302
0.000217402
0.000217501
0.000217598
0.000217694
0.000217788
0.000217882
0.000217974
0.000218065
0.000218155
0.000218244
0.000218332
0.000218418
0.000218504
0.000218588
0.000218671
0.000218754
0.000218835
0.000218915
0.000218994
0.000219072
0.00021915
0.000219226
0.000219301
0.000219376
0.000219449
0.000219522
0.000219593
0.000219664
0.000219734
0.000219802
0.00021987
0.000219937
0.000220002
0.000220067
0.00022013
0.000220193
0.000220254
0.000220314
0.000220372
0.000220429
0.000220485
0.000220539
0.000220591
0.000220642
0.000220691
0.000220738
0.000220783
0.000220827
0.000220867
0.000220906
0.000220942
0.000220976
0.000221008
0.000221036
0.000221062
0.000221086
0.000221106
0.000221124
0.000221139
0.000221151
0.00022116
0.000221166
0.000221169
0.000221169
0.000221166
0.00022116
0.000221151
0.000221139
0.000221125
0.000221107
0.000221087
0.000221064
0.000221038
0.00022101
0.000220979
0.000220946
0.00022091
0.000220871
0.000220831
0.000220788
0.000220743
0.000220695
0.000220646
0.000220595
0.000220541
0.000220486
0.000220429
0.00022037
0.00022031
0.000220248
0.000220184
0.000220119
0.000220053
0.000219984
0.000219915
0.000219844
0.000219772
0.000219699
0.000219625
0.000219549
0.000219473
0.000219395
0.000219316
0.000219236
0.000219156
0.000219074
0.000218992
0.000218908
0.000218824
0.000218739
0.000218653
0.000218567
0.000218479
0.000218391
0.000218303
0.000218213
0.000218123
0.000218033
0.000217942
0.00021785
0.000217757
0.000217664
0.000217571
0.000217477
0.000217382
0.000217287
0.000217192
0.000217096
0.000216999
0.000216902
0.000216805
0.000216707
0.000216609
0.000216511
0.000216412
0.000216312
0.000216213
0.000216113
0.000216012
0.000215911
0.00021581
0.000215709
0.000215607
0.000215505
0.000215402
0.0002153
0.000215197
0.000215093
0.00021499
0.000214886
0.000214782
0.000214677
0.000214572
0.000214468
0.000214362
0.000214257
0.000214151
0.000214045
0.000213939
0.000213833
0.000213726
0.000213619
0.000213512
0.000213405
0.000213297
0.00021319
0.000213082
0.000212973
0.000212865
0.000212757
0.000212648
0.000212539
0.00021243
0.000212321
0.000212211
0.000212102
0.000211992
0.000211882
0.000211772
0.000211662
0.000211551
0.000211441
0.00021133
0.000211219
0.000211108
0.000210997
0.000210886
0.000210774
0.000210662
0.000210551
0.000210439
0.000210327
0.000210215
0.000210102
0.00020999
0.000209877
0.000209765
0.000209652
0.000209539
0.000209426
0.000209313
0.0002092
0.000209086
0.000208973
0.000208859
0.000208745
0.000208632
0.000208518
0.000208404
0.00020829
0.000208175
0.000208061
0.000207947
0.000207832
0.000207718
0.000207603
0.000207488
0.000207373
0.000207258
0.000207143
0.000207028
0.000206913
0.000206798
0.000206682
0.000206567
0.000206451
0.000206336
0.00020622
0.000206104
0.000205988
0.000205873
0.000205757
0.000205641
0.000205525
0.000205408
0.000205292
0.000205176
0.00020506
0.000204943
0.000204827
0.00020471
0.000204594
0.000204477
0.00020436
0.000204243
0.000204127
0.00020401
0.000203893
0.000203776
0.000203659
0.000203542
0.000203425
0.000203308
0.000203191
0.000203073
0.000202956
0.000202839
0.000202722
0.000202604
0.000202487
0.000202369
0.000202252
0.000202134
0.000202017
0.000201899
0.000201782
0.000201664
0.000201546
0.000201429
0.000201311
0.000201193
0.000201075
0.000200958
0.00020084
0.000200722
0.000200604
0.000200486
0.000200368
0.00020025
0.000200132
0.000200014
0.000199897
0.000199779
0.000199661
0.000199543
0.000199425
0.000199307
0.000199188
0.00019907
0.000198952
0.000198834
0.000198716
0.000198598
0.00019848
0.000198362
0.000198244
0.000198126
0.000198008
0.00019789
0.000197772
0.000197653
0.000197535
0.000197417
0.000197299
0.000197181
0.000197063
0.000196945
0.000196827
0.000196709
0.000196591
0.000196473
0.000196355
0.000196237
0.000196119
0.000196001
0.000195883
0.000195765
0.000195647
0.000195529
0.000195411
0.000195293
0.000195175
0.000195058
0.00019494
0.000194822
0.000194704
0.000194586
0.000194469
0.000194351
0.000194233
0.000194115
0.000193998
0.00019388
0.000193763
0.000193645
0.000193527
0.00019341
0.000193292
0.000193175
0.000193058
0.00019294
0.000192823
0.000192705
0.000192588
0.000192471
0.000192354
0.000192236
0.000192119
0.000192002
0.000191885
0.000191768
0.000191651
0.000191534
0.000191417
0.0001913
0.000191183
0.000191067
0.00019095
0.000190833
0.000190716
0.0001906
0.000190483
0.000190367
0.00019025
0.000190134
0.000190017
0.000189901
0.000189785
0.000189668
0.000189552
0.000189436
0.00018932
0.000189204
0.000189088
0.000188972
0.000188856
0.00018874
0.000188624
0.000188509
0.000188393
0.000188277
0.000188162
0.000188046
0.000187931
0.000187815
0.0001877
0.000187585
0.000187469
0.000187354
0.000187239
0.000187124
0.000187009
0.000186894
0.000186779
0.000186664
0.00018655
0.000186435
0.00018632
0.000186206
0.000186091
0.000185977
0.000185863
0.000185748
0.000185634
0.00018552
0.000185406
0.000185292
0.000185178
0.000185064
0.00018495
0.000184836
0.000184723
0.000184609
0.000184496
0.000184382
0.000184269
0.000184155
0.000184042
0.000183929
0.000183816
0.000183703
0.00018359
0.000183477
0.000183364
0.000183252
0.000183139
0.000183026
0.000182914
0.000182801
0.000182689
0.000182577
0.000182465
0.000182352
0.00018224
0.000182128
0.000182017
0.000181905
0.000181793
0.000181681
0.00018157
0.000181458
0.000181347
0.000181236
0.000181124
0.000181013
0.000180902
0.000180791
0.00018068
0.00018057
0.000180459
0.000180348
0.000180238
0.000180127
0.000180017
0.000179906
0.000179796
0.000179686
0.000179576
0.000179466
0.000179356
0.000179246
0.000179137
0.000179027
0.000178917
0.000178808
0.000178699
0.000178589
0.00017848
0.000178371
0.000178262
0.000178153
0.000178044
0.000177935
0.000177827
0.000177718
0.00017761
0.000177501
0.000177393
0.000177285
0.000177177
0.000177069
0.000176961
0.000176853
0.000176745
0.000176638
0.00017653
0.000176423
0.000176315
0.000176208
0.000176101
0.000175994
0.000175887
0.00017578
0.000175673
0.000175566
0.00017546
0.000175353
0.000175247
0.00017514
0.000175034
0.000174928
0.000174822
0.000174716
0.00017461
0.000174504
0.000174398
0.000174293
0.000174187
0.000174082
0.000173977
0.000173871
0.000173766
0.000173661
0.000173556
0.000173452
0.000173347
0.000173242
0.000173138
0.000173033
0.000172929
0.000172825
0.000172721
0.000172616
0.000172513
0.000172409
0.000172305
0.000172201
0.000172098
0.000171994
0.000171891
0.000171788
0.000171684
0.000171581
0.000171478
0.000171376
0.000171273
0.00017117
0.000171068
0.000170965
0.000170863
0.00017076
0.000170658
0.000170556
0.000170454
0.000170352
0.000170251
0.000170149
0.000170047
0.000169946
0.000169844
0.000169743
0.000169642
0.000169541
0.00016944
0.000169339
0.000169238
0.000169138
0.000169037
0.000168936
0.000168836
0.000168736
0.000168636
0.000168536
0.000168436
0.000168336
0.000168236
0.000168136
0.000168037
0.000167937
0.000167838
0.000167739
0.000167639
0.00016754
0.000167441
0.000167342
0.000167244
0.000167145
0.000167046
0.000166948
0.00016685
0.000166751
0.000166653
0.000166555
0.000166457
0.000166359
0.000166261
0.000166164
0.000166066
0.000165969
0.000165871
0.000165774
0.000165677
0.00016558
0.000165483
0.000165386
0.000165289
0.000165193
0.000165096
0.000164999
0.000164903
0.000164807
0.000164711
0.000164615
0.000164519
0.000164423
0.000164327
0.000164231
0.000164136
0.00016404
0.000163945
0.00016385
0.000163755
0.00016366
0.000163565
0.00016347
0.000163375
0.00016328
0.000163186
0.000163091
0.000162997
0.000162903
0.000162809
0.000162714
0.000162621
0.000162527
0.000162433
0.000162339
0.000162246
0.000162152
0.000162059
0.000161966
0.000161872
0.000161779
0.000161686
0.000161594
0.000161501
0.000161408
0.000161316
0.000161223
0.000161131
0.000161039
0.000160946
0.000160854
0.000160762
0.000160671
0.000160579
0.000160487
0.000160396
0.000160304
0.000160213
0.000160121
0.00016003
0.000159939
0.000159848
0.000159757
0.000159667
0.000159576
0.000159485
0.000159395
0.000159305
0.000159214
0.000159124
0.000159034
0.000158944
0.000158854
0.000158764
0.000158675
0.000158585
0.000158496
0.000158406
0.000158317
0.000158228
0.000158139
0.00015805
0.000157961
0.000157872
0.000157783
0.000157695
0.000157606
0.000157518