/*--------------------------------*- C++ -*----------------------------------*\
| =========                 |                                                 |
| \\      /  F ield         | OpenFOAM: The Open Source CFD Toolbox           |
|  \\    /   O peration     | Version:  4.1                                   |
|   \\  /    A nd           | Web:      www.OpenFOAM.org                      |
|    \\/     M anipulation  |                                                 |
\*---------------------------------------------------------------------------*/
FoamFile
{
    version     2.0;
    format      ascii;
    class       volVectorField;
    location    "0.15";
    object      U;
}
// * * * * * * * * * * * * * * * * * * * * * * * * * * * * * * * * * * * * * //

dimensions      [0 1 -1 0 0 0 0];

internalField   nonuniform List<vector> 
3200
(
(-2 0 0)
(-2 0 0)
(-2 0 0)
(-2 0 0)
(-2 0 0)
(-2 0 0)
(-2 0 0)
(-2 0 0)
(-2 0 0)
(-2 0 0)
(-2 0 0)
(-2 0 0)
(-2 0 0)
(-2 0 0)
(-2 0 0)
(-2 0 0)
(-2 0 0)
(-2 0 0)
(-2 0 0)
(-2 0 0)
(-2 0 0)
(-2 0 0)
(-2 0 0)
(-2 0 0)
(-2 0 0)
(-2 0 0)
(-2 0 0)
(-2 0 0)
(-2 0 0)
(-2 0 0)
(-2 0 0)
(-2 0 0)
(-2 0 0)
(-2 0 0)
(-2 0 0)
(-2 0 0)
(-2 0 0)
(-2 0 0)
(-2 0 0)
(-2 0 0)
(-2 0 0)
(-2 0 0)
(-2 0 0)
(-2 0 0)
(-2 0 0)
(-2 0 0)
(-2 0 0)
(-2 0 0)
(-2 0 0)
(-2 0 0)
(-2 0 0)
(-2 0 0)
(-2 0 0)
(-2 0 0)
(-2 0 0)
(-2 0 0)
(-2 0 0)
(-2 0 0)
(-2 0 0)
(-2 0 0)
(-2 0 0)
(-2 0 0)
(-2 0 0)
(-2 0 0)
(-2 0 0)
(-2 0 0)
(-2 0 0)
(-2 0 0)
(-2 0 0)
(-2 0 0)
(-2 0 0)
(-2 0 0)
(-2 0 0)
(-2 0 0)
(-2 0 0)
(-2 0 0)
(-1.99999 0 0)
(-1.99999 0 0)
(-1.99999 0 0)
(-1.99999 0 0)
(-1.99999 0 0)
(-1.99999 0 0)
(-1.99999 0 0)
(-1.99999 0 0)
(-1.99999 0 0)
(-1.99999 0 0)
(-1.99999 0 0)
(-1.99999 0 0)
(-1.99999 0 0)
(-1.99999 0 0)
(-1.99998 0 0)
(-1.99998 0 0)
(-1.99998 0 0)
(-1.99998 0 0)
(-1.99998 0 0)
(-1.99998 0 0)
(-1.99997 0 0)
(-1.99997 0 0)
(-1.99997 0 0)
(-1.99997 0 0)
(-1.99997 0 0)
(-1.99996 0 0)
(-1.99996 0 0)
(-1.99996 0 0)
(-1.99996 0 0)
(-1.99995 0 0)
(-1.99995 0 0)
(-1.99995 0 0)
(-1.99994 0 0)
(-1.99994 0 0)
(-1.99993 0 0)
(-1.99993 0 0)
(-1.99992 0 0)
(-1.99992 0 0)
(-1.99991 0 0)
(-1.99991 0 0)
(-1.9999 0 0)
(-1.99989 0 0)
(-1.99989 0 0)
(-1.99988 0 0)
(-1.99987 0 0)
(-1.99986 0 0)
(-1.99985 0 0)
(-1.99984 0 0)
(-1.99983 0 0)
(-1.99982 0 0)
(-1.99981 0 0)
(-1.9998 0 0)
(-1.99979 0 0)
(-1.99977 0 0)
(-1.99976 0 0)
(-1.99974 0 0)
(-1.99973 0 0)
(-1.99971 0 0)
(-1.99969 0 0)
(-1.99968 0 0)
(-1.99966 0 0)
(-1.99964 0 0)
(-1.99961 0 0)
(-1.99959 0 0)
(-1.99957 0 0)
(-1.99954 0 0)
(-1.99952 0 0)
(-1.99949 0 0)
(-1.99946 0 0)
(-1.99943 0 0)
(-1.9994 0 0)
(-1.99936 0 0)
(-1.99933 0 0)
(-1.99929 0 0)
(-1.99925 0 0)
(-1.99921 0 0)
(-1.99917 0 0)
(-1.99913 0 0)
(-1.99908 0 0)
(-1.99903 0 0)
(-1.99898 0 0)
(-1.99893 0 0)
(-1.99888 0 0)
(-1.99882 0 0)
(-1.99876 0 0)
(-1.9987 0 0)
(-1.99863 0 0)
(-1.99856 0 0)
(-1.99849 0 0)
(-1.99842 0 0)
(-1.99834 0 0)
(-1.99826 0 0)
(-1.99818 0 0)
(-1.9981 0 0)
(-1.99801 0 0)
(-1.99791 0 0)
(-1.99782 0 0)
(-1.99772 0 0)
(-1.99762 0 0)
(-1.99751 0 0)
(-1.9974 0 0)
(-1.99728 0 0)
(-1.99716 0 0)
(-1.99704 0 0)
(-1.99691 0 0)
(-1.99678 0 0)
(-1.99664 0 0)
(-1.9965 0 0)
(-1.99635 0 0)
(-1.9962 0 0)
(-1.99604 0 0)
(-1.99588 0 0)
(-1.99572 0 0)
(-1.99554 0 0)
(-1.99537 0 0)
(-1.99518 0 0)
(-1.995 0 0)
(-1.9948 0 0)
(-1.9946 0 0)
(-1.9944 0 0)
(-1.99418 0 0)
(-1.99397 0 0)
(-1.99374 0 0)
(-1.99351 0 0)
(-1.99328 0 0)
(-1.99303 0 0)
(-1.99278 0 0)
(-1.99253 0 0)
(-1.99226 0 0)
(-1.99199 0 0)
(-1.99171 0 0)
(-1.99143 0 0)
(-1.99114 0 0)
(-1.99084 0 0)
(-1.99053 0 0)
(-1.99022 0 0)
(-1.9899 0 0)
(-1.98957 0 0)
(-1.98923 0 0)
(-1.98889 0 0)
(-1.98854 0 0)
(-1.98818 0 0)
(-1.98781 0 0)
(-1.98743 0 0)
(-1.98705 0 0)
(-1.98666 0 0)
(-1.98626 0 0)
(-1.98585 0 0)
(-1.98543 0 0)
(-1.98501 0 0)
(-1.98457 0 0)
(-1.98413 0 0)
(-1.98368 0 0)
(-1.98322 0 0)
(-1.98276 0 0)
(-1.98228 0 0)
(-1.98179 0 0)
(-1.9813 0 0)
(-1.9808 0 0)
(-1.98029 0 0)
(-1.97977 0 0)
(-1.97924 0 0)
(-1.9787 0 0)
(-1.97815 0 0)
(-1.9776 0 0)
(-1.97703 0 0)
(-1.97646 0 0)
(-1.97588 0 0)
(-1.97529 0 0)
(-1.97469 0 0)
(-1.97408 0 0)
(-1.97346 0 0)
(-1.97284 0 0)
(-1.9722 0 0)
(-1.97156 0 0)
(-1.9709 0 0)
(-1.97024 0 0)
(-1.96957 0 0)
(-1.96889 0 0)
(-1.9682 0 0)
(-1.9675 0 0)
(-1.96679 0 0)
(-1.96608 0 0)
(-1.96535 0 0)
(-1.96462 0 0)
(-1.96388 0 0)
(-1.96313 0 0)
(-1.96237 0 0)
(-1.9616 0 0)
(-1.96083 0 0)
(-1.96004 0 0)
(-1.95925 0 0)
(-1.95845 0 0)
(-1.95763 0 0)
(-1.95682 0 0)
(-1.95599 0 0)
(-1.95515 0 0)
(-1.95431 0 0)
(-1.95346 0 0)
(-1.9526 0 0)
(-1.95173 0 0)
(-1.95085 0 0)
(-1.94997 0 0)
(-1.94907 0 0)
(-1.94817 0 0)
(-1.94726 0 0)
(-1.94635 0 0)
(-1.94542 0 0)
(-1.94449 0 0)
(-1.94355 0 0)
(-1.9426 0 0)
(-1.94165 0 0)
(-1.94068 0 0)
(-1.93971 0 0)
(-1.93873 0 0)
(-1.93775 0 0)
(-1.93676 0 0)
(-1.93576 0 0)
(-1.93475 0 0)
(-1.93373 0 0)
(-1.93271 0 0)
(-1.93169 0 0)
(-1.93065 0 0)
(-1.92961 0 0)
(-1.92856 0 0)
(-1.9275 0 0)
(-1.92644 0 0)
(-1.92537 0 0)
(-1.92429 0 0)
(-1.92321 0 0)
(-1.92212 0 0)
(-1.92103 0 0)
(-1.91992 0 0)
(-1.91881 0 0)
(-1.9177 0 0)
(-1.91658 0 0)
(-1.91545 0 0)
(-1.91432 0 0)
(-1.91318 0 0)
(-1.91203 0 0)
(-1.91088 0 0)
(-1.90972 0 0)
(-1.90856 0 0)
(-1.90739 0 0)
(-1.90622 0 0)
(-1.90504 0 0)
(-1.90385 0 0)
(-1.90266 0 0)
(-1.90146 0 0)
(-1.90026 0 0)
(-1.89905 0 0)
(-1.89784 0 0)
(-1.89662 0 0)
(-1.8954 0 0)
(-1.89417 0 0)
(-1.89294 0 0)
(-1.8917 0 0)
(-1.89046 0 0)
(-1.88921 0 0)
(-1.88795 0 0)
(-1.88669 0 0)
(-1.88543 0 0)
(-1.88416 0 0)
(-1.88289 0 0)
(-1.88161 0 0)
(-1.88033 0 0)
(-1.87904 0 0)
(-1.87775 0 0)
(-1.87646 0 0)
(-1.87516 0 0)
(-1.87385 0 0)
(-1.87255 0 0)
(-1.87123 0 0)
(-1.86992 0 0)
(-1.86859 0 0)
(-1.86727 0 0)
(-1.86594 0 0)
(-1.86461 0 0)
(-1.86327 0 0)
(-1.86193 0 0)
(-1.86058 0 0)
(-1.85923 0 0)
(-1.85788 0 0)
(-1.85652 0 0)
(-1.85516 0 0)
(-1.8538 0 0)
(-1.85243 0 0)
(-1.85106 0 0)
(-1.84968 0 0)
(-1.84831 0 0)
(-1.84692 0 0)
(-1.84554 0 0)
(-1.84415 0 0)
(-1.84276 0 0)
(-1.84136 0 0)
(-1.83996 0 0)
(-1.83856 0 0)
(-1.83715 0 0)
(-1.83574 0 0)
(-1.83433 0 0)
(-1.83292 0 0)
(-1.8315 0 0)
(-1.83008 0 0)
(-1.82865 0 0)
(-1.82723 0 0)
(-1.82579 0 0)
(-1.82436 0 0)
(-1.82293 0 0)
(-1.82149 0 0)
(-1.82004 0 0)
(-1.8186 0 0)
(-1.81715 0 0)
(-1.8157 0 0)
(-1.81425 0 0)
(-1.81279 0 0)
(-1.81133 0 0)
(-1.80987 0 0)
(-1.80841 0 0)
(-1.80694 0 0)
(-1.80547 0 0)
(-1.804 0 0)
(-1.80253 0 0)
(-1.80105 0 0)
(-1.79957 0 0)
(-1.79809 0 0)
(-1.79661 0 0)
(-1.79512 0 0)
(-1.79363 0 0)
(-1.79214 0 0)
(-1.79065 0 0)
(-1.78915 0 0)
(-1.78766 0 0)
(-1.78616 0 0)
(-1.78465 0 0)
(-1.78315 0 0)
(-1.78164 0 0)
(-1.78014 0 0)
(-1.77862 0 0)
(-1.77711 0 0)
(-1.7756 0 0)
(-1.77408 0 0)
(-1.77256 0 0)
(-1.77104 0 0)
(-1.76952 0 0)
(-1.76799 0 0)
(-1.76647 0 0)
(-1.76494 0 0)
(-1.76341 0 0)
(-1.76187 0 0)
(-1.76034 0 0)
(-1.7588 0 0)
(-1.75726 0 0)
(-1.75572 0 0)
(-1.75418 0 0)
(-1.75264 0 0)
(-1.75109 0 0)
(-1.74955 0 0)
(-1.748 0 0)
(-1.74645 0 0)
(-1.74489 0 0)
(-1.74334 0 0)
(-1.74178 0 0)
(-1.74023 0 0)
(-1.73867 0 0)
(-1.73711 0 0)
(-1.73555 0 0)
(-1.73398 0 0)
(-1.73242 0 0)
(-1.73085 0 0)
(-1.72928 0 0)
(-1.72771 0 0)
(-1.72614 0 0)
(-1.72457 0 0)
(-1.72299 0 0)
(-1.72142 0 0)
(-1.71984 0 0)
(-1.71826 0 0)
(-1.71668 0 0)
(-1.7151 0 0)
(-1.71351 0 0)
(-1.71193 0 0)
(-1.71034 0 0)
(-1.70876 0 0)
(-1.70717 0 0)
(-1.70558 0 0)
(-1.70399 0 0)
(-1.70239 0 0)
(-1.7008 0 0)
(-1.69921 0 0)
(-1.69761 0 0)
(-1.69601 0 0)
(-1.69441 0 0)
(-1.69281 0 0)
(-1.69121 0 0)
(-1.68961 0 0)
(-1.688 0 0)
(-1.6864 0 0)
(-1.68479 0 0)
(-1.68318 0 0)
(-1.68158 0 0)
(-1.67997 0 0)
(-1.67835 0 0)
(-1.67674 0 0)
(-1.67513 0 0)
(-1.67351 0 0)
(-1.6719 0 0)
(-1.67028 0 0)
(-1.66866 0 0)
(-1.66704 0 0)
(-1.66542 0 0)
(-1.6638 0 0)
(-1.66218 0 0)
(-1.66056 0 0)
(-1.65893 0 0)
(-1.65731 0 0)
(-1.65568 0 0)
(-1.65406 0 0)
(-1.65243 0 0)
(-1.6508 0 0)
(-1.64917 0 0)
(-1.64754 0 0)
(-1.6459 0 0)
(-1.64427 0 0)
(-1.64264 0 0)
(-1.641 0 0)
(-1.63936 0 0)
(-1.63773 0 0)
(-1.63609 0 0)
(-1.63445 0 0)
(-1.63281 0 0)
(-1.63117 0 0)
(-1.62953 0 0)
(-1.62789 0 0)
(-1.62624 0 0)
(-1.6246 0 0)
(-1.62295 0 0)
(-1.62131 0 0)
(-1.61966 0 0)
(-1.61801 0 0)
(-1.61636 0 0)
(-1.61471 0 0)
(-1.61306 0 0)
(-1.61141 0 0)
(-1.60976 0 0)
(-1.60811 0 0)
(-1.60645 0 0)
(-1.6048 0 0)
(-1.60314 0 0)
(-1.60149 0 0)
(-1.59983 0 0)
(-1.59817 0 0)
(-1.59651 0 0)
(-1.59485 0 0)
(-1.59319 0 0)
(-1.59153 0 0)
(-1.58987 0 0)
(-1.58821 0 0)
(-1.58654 0 0)
(-1.58488 0 0)
(-1.58322 0 0)
(-1.58155 0 0)
(-1.57988 0 0)
(-1.57822 0 0)
(-1.57655 0 0)
(-1.57488 0 0)
(-1.57321 0 0)
(-1.57154 0 0)
(-1.56987 0 0)
(-1.5682 0 0)
(-1.56653 0 0)
(-1.56486 0 0)
(-1.56318 0 0)
(-1.56151 0 0)
(-1.55983 0 0)
(-1.55816 0 0)
(-1.55648 0 0)
(-1.55481 0 0)
(-1.55313 0 0)
(-1.55145 0 0)
(-1.54977 0 0)
(-1.54809 0 0)
(-1.54641 0 0)
(-1.54473 0 0)
(-1.54305 0 0)
(-1.54137 0 0)
(-1.53969 0 0)
(-1.53801 0 0)
(-1.53632 0 0)
(-1.53464 0 0)
(-1.53295 0 0)
(-1.53127 0 0)
(-1.52958 0 0)
(-1.52789 0 0)
(-1.52621 0 0)
(-1.52452 0 0)
(-1.52283 0 0)
(-1.52114 0 0)
(-1.51945 0 0)
(-1.51776 0 0)
(-1.51607 0 0)
(-1.51438 0 0)
(-1.51269 0 0)
(-1.51099 0 0)
(-1.5093 0 0)
(-1.50761 0 0)
(-1.50591 0 0)
(-1.50422 0 0)
(-1.50252 0 0)
(-1.50083 0 0)
(-1.49913 0 0)
(-1.49743 0 0)
(-1.49574 0 0)
(-1.49404 0 0)
(-1.49234 0 0)
(-1.49064 0 0)
(-1.48894 0 0)
(-1.48724 0 0)
(-1.48554 0 0)
(-1.48384 0 0)
(-1.48214 0 0)
(-1.48043 0 0)
(-1.47873 0 0)
(-1.47703 0 0)
(-1.47532 0 0)
(-1.47362 0 0)
(-1.47192 0 0)
(-1.47021 0 0)
(-1.4685 0 0)
(-1.4668 0 0)
(-1.46509 0 0)
(-1.46338 0 0)
(-1.46168 0 0)
(-1.45997 0 0)
(-1.45826 0 0)
(-1.45655 0 0)
(-1.45484 0 0)
(-1.45313 0 0)
(-1.45142 0 0)
(-1.44971 0 0)
(-1.448 0 0)
(-1.44628 0 0)
(-1.44457 0 0)
(-1.44286 0 0)
(-1.44114 0 0)
(-1.43943 0 0)
(-1.43772 0 0)
(-1.436 0 0)
(-1.43428 0 0)
(-1.43257 0 0)
(-1.43085 0 0)
(-1.42914 0 0)
(-1.42742 0 0)
(-1.4257 0 0)
(-1.42398 0 0)
(-1.42226 0 0)
(-1.42055 0 0)
(-1.41883 0 0)
(-1.41711 0 0)
(-1.41539 0 0)
(-1.41366 0 0)
(-1.41194 0 0)
(-1.41022 0 0)
(-1.4085 0 0)
(-1.40678 0 0)
(-1.40505 0 0)
(-1.40333 0 0)
(-1.40161 0 0)
(-1.39988 0 0)
(-1.39816 0 0)
(-1.39643 0 0)
(-1.39471 0 0)
(-1.39298 0 0)
(-1.39126 0 0)
(-1.38953 0 0)
(-1.3878 0 0)
(-1.38608 0 0)
(-1.38435 0 0)
(-1.38262 0 0)
(-1.38089 0 0)
(-1.37916 0 0)
(-1.37743 0 0)
(-1.3757 0 0)
(-1.37397 0 0)
(-1.37224 0 0)
(-1.37051 0 0)
(-1.36878 0 0)
(-1.36705 0 0)
(-1.36531 0 0)
(-1.36358 0 0)
(-1.36185 0 0)
(-1.36012 0 0)
(-1.35838 0 0)
(-1.35665 0 0)
(-1.35491 0 0)
(-1.35318 0 0)
(-1.35144 0 0)
(-1.34971 0 0)
(-1.34797 0 0)
(-1.34624 0 0)
(-1.3445 0 0)
(-1.34276 0 0)
(-1.34102 0 0)
(-1.33929 0 0)
(-1.33755 0 0)
(-1.33581 0 0)
(-1.33407 0 0)
(-1.33233 0 0)
(-1.33059 0 0)
(-1.32885 0 0)
(-1.32711 0 0)
(-1.32537 0 0)
(-1.32363 0 0)
(-1.32189 0 0)
(-1.32015 0 0)
(-1.3184 0 0)
(-1.31666 0 0)
(-1.31492 0 0)
(-1.31317 0 0)
(-1.31143 0 0)
(-1.30969 0 0)
(-1.30794 0 0)
(-1.3062 0 0)
(-1.30445 0 0)
(-1.30271 0 0)
(-1.30096 0 0)
(-1.29922 0 0)
(-1.29747 0 0)
(-1.29572 0 0)
(-1.29398 0 0)
(-1.29223 0 0)
(-1.29048 0 0)
(-1.28873 0 0)
(-1.28698 0 0)
(-1.28523 0 0)
(-1.28349 0 0)
(-1.28174 0 0)
(-1.27999 0 0)
(-1.27824 0 0)
(-1.27649 0 0)
(-1.27473 0 0)
(-1.27298 0 0)
(-1.27123 0 0)
(-1.26948 0 0)
(-1.26773 0 0)
(-1.26598 0 0)
(-1.26422 0 0)
(-1.26247 0 0)
(-1.26072 0 0)
(-1.25896 0 0)
(-1.25721 0 0)
(-1.25545 0 0)
(-1.2537 0 0)
(-1.25195 0 0)
(-1.25019 0 0)
(-1.24843 0 0)
(-1.24668 0 0)
(-1.24492 0 0)
(-1.24317 0 0)
(-1.24141 0 0)
(-1.23965 0 0)
(-1.23789 0 0)
(-1.23614 0 0)
(-1.23438 0 0)
(-1.23262 0 0)
(-1.23086 0 0)
(-1.2291 0 0)
(-1.22734 0 0)
(-1.22558 0 0)
(-1.22382 0 0)
(-1.22206 0 0)
(-1.2203 0 0)
(-1.21854 0 0)
(-1.21678 0 0)
(-1.21502 0 0)
(-1.21326 0 0)
(-1.21149 0 0)
(-1.20973 0 0)
(-1.20797 0 0)
(-1.20621 0 0)
(-1.20444 0 0)
(-1.20268 0 0)
(-1.20092 0 0)
(-1.19915 0 0)
(-1.19739 0 0)
(-1.19562 0 0)
(-1.19386 0 0)
(-1.19209 0 0)
(-1.19033 0 0)
(-1.18856 0 0)
(-1.18679 0 0)
(-1.18503 0 0)
(-1.18326 0 0)
(-1.18149 0 0)
(-1.17973 0 0)
(-1.17796 0 0)
(-1.17619 0 0)
(-1.17442 0 0)
(-1.17265 0 0)
(-1.17088 0 0)
(-1.16912 0 0)
(-1.16735 0 0)
(-1.16558 0 0)
(-1.16381 0 0)
(-1.16204 0 0)
(-1.16027 0 0)
(-1.15849 0 0)
(-1.15672 0 0)
(-1.15495 0 0)
(-1.15318 0 0)
(-1.15141 0 0)
(-1.14964 0 0)
(-1.14786 0 0)
(-1.14609 0 0)
(-1.14432 0 0)
(-1.14254 0 0)
(-1.14077 0 0)
(-1.139 0 0)
(-1.13722 0 0)
(-1.13545 0 0)
(-1.13367 0 0)
(-1.1319 0 0)
(-1.13012 0 0)
(-1.12835 0 0)
(-1.12657 0 0)
(-1.1248 0 0)
(-1.12302 0 0)
(-1.12124 0 0)
(-1.11947 0 0)
(-1.11769 0 0)
(-1.11591 0 0)
(-1.11413 0 0)
(-1.11236 0 0)
(-1.11058 0 0)
(-1.1088 0 0)
(-1.10702 0 0)
(-1.10524 0 0)
(-1.10346 0 0)
(-1.10168 0 0)
(-1.0999 0 0)
(-1.09812 0 0)
(-1.09634 0 0)
(-1.09456 0 0)
(-1.09278 0 0)
(-1.091 0 0)
(-1.08922 0 0)
(-1.08744 0 0)
(-1.08565 0 0)
(-1.08387 0 0)
(-1.08209 0 0)
(-1.08031 0 0)
(-1.07852 0 0)
(-1.07674 0 0)
(-1.07496 0 0)
(-1.07317 0 0)
(-1.07139 0 0)
(-1.06961 0 0)
(-1.06782 0 0)
(-1.06604 0 0)
(-1.06425 0 0)
(-1.06247 0 0)
(-1.06068 0 0)
(-1.0589 0 0)
(-1.05711 0 0)
(-1.05532 0 0)
(-1.05354 0 0)
(-1.05175 0 0)
(-1.04996 0 0)
(-1.04818 0 0)
(-1.04639 0 0)
(-1.0446 0 0)
(-1.04281 0 0)
(-1.04102 0 0)
(-1.03924 0 0)
(-1.03745 0 0)
(-1.03566 0 0)
(-1.03387 0 0)
(-1.03208 0 0)
(-1.03029 0 0)
(-1.0285 0 0)
(-1.02671 0 0)
(-1.02492 0 0)
(-1.02313 0 0)
(-1.02134 0 0)
(-1.01955 0 0)
(-1.01776 0 0)
(-1.01596 0 0)
(-1.01417 0 0)
(-1.01238 0 0)
(-1.01059 0 0)
(-1.00879 0 0)
(-1.007 0 0)
(-1.00521 0 0)
(-1.00342 0 0)
(-1.00162 0 0)
(-0.999828 0 0)
(-0.998034 0 0)
(-0.99624 0 0)
(-0.994445 0 0)
(-0.99265 0 0)
(-0.990855 0 0)
(-0.98906 0 0)
(-0.987265 0 0)
(-0.985469 0 0)
(-0.983673 0 0)
(-0.981877 0 0)
(-0.980081 0 0)
(-0.978284 0 0)
(-0.976487 0 0)
(-0.97469 0 0)
(-0.972893 0 0)
(-0.971096 0 0)
(-0.969298 0 0)
(-0.9675 0 0)
(-0.965702 0 0)
(-0.963903 0 0)
(-0.962105 0 0)
(-0.960306 0 0)
(-0.958507 0 0)
(-0.956707 0 0)
(-0.954908 0 0)
(-0.953108 0 0)
(-0.951308 0 0)
(-0.949508 0 0)
(-0.947707 0 0)
(-0.945907 0 0)
(-0.944106 0 0)
(-0.942305 0 0)
(-0.940503 0 0)
(-0.938702 0 0)
(-0.9369 0 0)
(-0.935098 0 0)
(-0.933296 0 0)
(-0.931494 0 0)
(-0.929691 0 0)
(-0.927888 0 0)
(-0.926085 0 0)
(-0.924282 0 0)
(-0.922478 0 0)
(-0.920674 0 0)
(-0.91887 0 0)
(-0.917066 0 0)
(-0.915262 0 0)
(-0.913457 0 0)
(-0.911653 0 0)
(-0.909848 0 0)
(-0.908042 0 0)
(-0.906237 0 0)
(-0.904431 0 0)
(-0.902625 0 0)
(-0.900819 0 0)
(-0.899013 0 0)
(-0.897207 0 0)
(-0.8954 0 0)
(-0.893593 0 0)
(-0.891786 0 0)
(-0.889979 0 0)
(-0.888171 0 0)
(-0.886363 0 0)
(-0.884556 0 0)
(-0.882747 0 0)
(-0.880939 0 0)
(-0.879131 0 0)
(-0.877322 0 0)
(-0.875513 0 0)
(-0.873704 0 0)
(-0.871894 0 0)
(-0.870085 0 0)
(-0.868275 0 0)
(-0.866465 0 0)
(-0.864655 0 0)
(-0.862845 0 0)
(-0.861034 0 0)
(-0.859223 0 0)
(-0.857412 0 0)
(-0.855601 0 0)
(-0.85379 0 0)
(-0.851978 0 0)
(-0.850167 0 0)
(-0.848355 0 0)
(-0.846542 0 0)
(-0.84473 0 0)
(-0.842918 0 0)
(-0.841105 0 0)
(-0.839292 0 0)
(-0.837479 0 0)
(-0.835666 0 0)
(-0.833852 0 0)
(-0.832039 0 0)
(-0.830225 0 0)
(-0.828411 0 0)
(-0.826596 0 0)
(-0.824782 0 0)
(-0.822967 0 0)
(-0.821153 0 0)
(-0.819338 0 0)
(-0.817522 0 0)
(-0.815707 0 0)
(-0.813892 0 0)
(-0.812076 0 0)
(-0.81026 0 0)
(-0.808444 0 0)
(-0.806628 0 0)
(-0.804811 0 0)
(-0.802994 0 0)
(-0.801178 0 0)
(-0.799361 0 0)
(-0.797544 0 0)
(-0.795726 0 0)
(-0.793909 0 0)
(-0.792091 0 0)
(-0.790273 0 0)
(-0.788455 0 0)
(-0.786637 0 0)
(-0.784818 0 0)
(-0.783 0 0)
(-0.781181 0 0)
(-0.779362 0 0)
(-0.777543 0 0)
(-0.775724 0 0)
(-0.773904 0 0)
(-0.772085 0 0)
(-0.770265 0 0)
(-0.768445 0 0)
(-0.766625 0 0)
(-0.764804 0 0)
(-0.762984 0 0)
(-0.761163 0 0)
(-0.759342 0 0)
(-0.757522 0 0)
(-0.7557 0 0)
(-0.753879 0 0)
(-0.752058 0 0)
(-0.750236 0 0)
(-0.748414 0 0)
(-0.746592 0 0)
(-0.74477 0 0)
(-0.742948 0 0)
(-0.741125 0 0)
(-0.739303 0 0)
(-0.73748 0 0)
(-0.735657 0 0)
(-0.733834 0 0)
(-0.732011 0 0)
(-0.730188 0 0)
(-0.728364 0 0)
(-0.72654 0 0)
(-0.724716 0 0)
(-0.722892 0 0)
(-0.721068 0 0)
(-0.719244 0 0)
(-0.71742 0 0)
(-0.715595 0 0)
(-0.71377 0 0)
(-0.711945 0 0)
(-0.71012 0 0)
(-0.708295 0 0)
(-0.70647 0 0)
(-0.704644 0 0)
(-0.702819 0 0)
(-0.700993 0 0)
(-0.699167 0 0)
(-0.697341 0 0)
(-0.695515 0 0)
(-0.693688 0 0)
(-0.691862 0 0)
(-0.690035 0 0)
(-0.688208 0 0)
(-0.686382 0 0)
(-0.684554 0 0)
(-0.682727 0 0)
(-0.6809 0 0)
(-0.679073 0 0)
(-0.677245 0 0)
(-0.675417 0 0)
(-0.673589 0 0)
(-0.671761 0 0)
(-0.669933 0 0)
(-0.668105 0 0)
(-0.666277 0 0)
(-0.664448 0 0)
(-0.66262 0 0)
(-0.660791 0 0)
(-0.658962 0 0)
(-0.657133 0 0)
(-0.655304 0 0)
(-0.653474 0 0)
(-0.651645 0 0)
(-0.649816 0 0)
(-0.647986 0 0)
(-0.646156 0 0)
(-0.644326 0 0)
(-0.642496 0 0)
(-0.640666 0 0)
(-0.638836 0 0)
(-0.637006 0 0)
(-0.635175 0 0)
(-0.633345 0 0)
(-0.631514 0 0)
(-0.629683 0 0)
(-0.627852 0 0)
(-0.626021 0 0)
(-0.62419 0 0)
(-0.622359 0 0)
(-0.620528 0 0)
(-0.618696 0 0)
(-0.616865 0 0)
(-0.615033 0 0)
(-0.613201 0 0)
(-0.61137 0 0)
(-0.609538 0 0)
(-0.607706 0 0)
(-0.605873 0 0)
(-0.604041 0 0)
(-0.602209 0 0)
(-0.600376 0 0)
(-0.598544 0 0)
(-0.596711 0 0)
(-0.594878 0 0)
(-0.593046 0 0)
(-0.591213 0 0)
(-0.58938 0 0)
(-0.587547 0 0)
(-0.585713 0 0)
(-0.58388 0 0)
(-0.582047 0 0)
(-0.580213 0 0)
(-0.57838 0 0)
(-0.576546 0 0)
(-0.574713 0 0)
(-0.572879 0 0)
(-0.571045 0 0)
(-0.569211 0 0)
(-0.567377 0 0)
(-0.565543 0 0)
(-0.563709 0 0)
(-0.561875 0 0)
(-0.56004 0 0)
(-0.558206 0 0)
(-0.556372 0 0)
(-0.554537 0 0)
(-0.552703 0 0)
(-0.550868 0 0)
(-0.549033 0 0)
(-0.547199 0 0)
(-0.545364 0 0)
(-0.543529 0 0)
(-0.541694 0 0)
(-0.539859 0 0)
(-0.538024 0 0)
(-0.536189 0 0)
(-0.534354 0 0)
(-0.532518 0 0)
(-0.530683 0 0)
(-0.528848 0 0)
(-0.527013 0 0)
(-0.525177 0 0)
(-0.523342 0 0)
(-0.521506 0 0)
(-0.519671 0 0)
(-0.517835 0 0)
(-0.516 0 0)
(-0.514164 0 0)
(-0.512328 0 0)
(-0.510493 0 0)
(-0.508657 0 0)
(-0.506821 0 0)
(-0.504985 0 0)
(-0.50315 0 0)
(-0.501314 0 0)
(-0.499478 0 0)
(-0.497642 0 0)
(-0.495806 0 0)
(-0.49397 0 0)
(-0.492134 0 0)
(-0.490298 0 0)
(-0.488462 0 0)
(-0.486626 0 0)
(-0.48479 0 0)
(-0.482954 0 0)
(-0.481118 0 0)
(-0.479282 0 0)
(-0.477446 0 0)
(-0.475611 0 0)
(-0.473775 0 0)
(-0.471939 0 0)
(-0.470103 0 0)
(-0.468267 0 0)
(-0.466431 0 0)
(-0.464595 0 0)
(-0.462759 0 0)
(-0.460923 0 0)
(-0.459087 0 0)
(-0.457251 0 0)
(-0.455415 0 0)
(-0.45358 0 0)
(-0.451744 0 0)
(-0.449908 0 0)
(-0.448073 0 0)
(-0.446237 0 0)
(-0.444401 0 0)
(-0.442566 0 0)
(-0.44073 0 0)
(-0.438895 0 0)
(-0.437059 0 0)
(-0.435224 0 0)
(-0.433389 0 0)
(-0.431554 0 0)
(-0.429718 0 0)
(-0.427883 0 0)
(-0.426048 0 0)
(-0.424213 0 0)
(-0.422378 0 0)
(-0.420544 0 0)
(-0.418709 0 0)
(-0.416874 0 0)
(-0.41504 0 0)
(-0.413205 0 0)
(-0.411371 0 0)
(-0.409537 0 0)
(-0.407703 0 0)
(-0.405869 0 0)
(-0.404035 0 0)
(-0.402201 0 0)
(-0.400368 0 0)
(-0.398534 0 0)
(-0.396701 0 0)
(-0.394867 0 0)
(-0.393034 0 0)
(-0.391201 0 0)
(-0.389369 0 0)
(-0.387536 0 0)
(-0.385704 0 0)
(-0.383871 0 0)
(-0.382039 0 0)
(-0.380207 0 0)
(-0.378375 0 0)
(-0.376544 0 0)
(-0.374712 0 0)
(-0.372881 0 0)
(-0.37105 0 0)
(-0.369219 0 0)
(-0.367389 0 0)
(-0.365558 0 0)
(-0.363728 0 0)
(-0.361898 0 0)
(-0.360069 0 0)
(-0.358239 0 0)
(-0.35641 0 0)
(-0.354581 0 0)
(-0.352753 0 0)
(-0.350924 0 0)
(-0.349096 0 0)
(-0.347269 0 0)
(-0.345441 0 0)
(-0.343614 0 0)
(-0.341787 0 0)
(-0.339961 0 0)
(-0.338135 0 0)
(-0.336309 0 0)
(-0.334484 0 0)
(-0.332658 0 0)
(-0.330834 0 0)
(-0.329009 0 0)
(-0.327186 0 0)
(-0.325362 0 0)
(-0.323539 0 0)
(-0.321716 0 0)
(-0.319894 0 0)
(-0.318072 0 0)
(-0.316251 0 0)
(-0.31443 0 0)
(-0.31261 0 0)
(-0.31079 0 0)
(-0.308971 0 0)
(-0.307152 0 0)
(-0.305334 0 0)
(-0.303517 0 0)
(-0.3017 0 0)
(-0.299883 0 0)
(-0.298068 0 0)
(-0.296252 0 0)
(-0.294438 0 0)
(-0.292624 0 0)
(-0.290811 0 0)
(-0.288998 0 0)
(-0.287187 0 0)
(-0.285376 0 0)
(-0.283566 0 0)
(-0.281756 0 0)
(-0.279948 0 0)
(-0.27814 0 0)
(-0.276333 0 0)
(-0.274527 0 0)
(-0.272722 0 0)
(-0.270918 0 0)
(-0.269115 0 0)
(-0.267313 0 0)
(-0.265512 0 0)
(-0.263712 0 0)
(-0.261913 0 0)
(-0.260115 0 0)
(-0.258319 0 0)
(-0.256523 0 0)
(-0.254729 0 0)
(-0.252936 0 0)
(-0.251145 0 0)
(-0.249354 0 0)
(-0.247566 0 0)
(-0.245778 0 0)
(-0.243992 0 0)
(-0.242208 0 0)
(-0.240425 0 0)
(-0.238644 0 0)
(-0.236865 0 0)
(-0.235087 0 0)
(-0.233311 0 0)
(-0.231537 0 0)
(-0.229765 0 0)
(-0.227995 0 0)
(-0.226227 0 0)
(-0.224461 0 0)
(-0.222698 0 0)
(-0.220937 0 0)
(-0.219178 0 0)
(-0.217421 0 0)
(-0.215667 0 0)
(-0.213916 0 0)
(-0.212167 0 0)
(-0.210422 0 0)
(-0.208679 0 0)
(-0.206939 0 0)
(-0.205202 0 0)
(-0.203469 0 0)
(-0.201739 0 0)
(-0.200013 0 0)
(-0.19829 0 0)
(-0.196571 0 0)
(-0.194856 0 0)
(-0.193145 0 0)
(-0.191439 0 0)
(-0.189737 0 0)
(-0.188039 0 0)
(-0.186346 0 0)
(-0.184659 0 0)
(-0.182976 0 0)
(-0.181299 0 0)
(-0.179627 0 0)
(-0.177962 0 0)
(-0.176302 0 0)
(-0.174649 0 0)
(-0.173002 0 0)
(-0.171362 0 0)
(-0.16973 0 0)
(-0.168105 0 0)
(-0.166487 0 0)
(-0.164878 0 0)
(-0.163277 0 0)
(-0.161685 0 0)
(-0.160102 0 0)
(-0.158529 0 0)
(-0.156965 0 0)
(-0.155412 0 0)
(-0.15387 0 0)
(-0.152339 0 0)
(-0.150819 0 0)
(-0.149312 0 0)
(-0.147817 0 0)
(-0.146336 0 0)
(-0.144868 0 0)
(-0.143414 0 0)
(-0.141974 0 0)
(-0.14055 0 0)
(-0.139142 0 0)
(-0.13775 0 0)
(-0.136375 0 0)
(-0.135017 0 0)
(-0.133677 0 0)
(-0.132356 0 0)
(-0.131054 0 0)
(-0.129771 0 0)
(-0.128508 0 0)
(-0.127266 0 0)
(-0.126045 0 0)
(-0.124846 0 0)
(-0.123668 0 0)
(-0.122513 0 0)
(-0.12138 0 0)
(-0.12027 0 0)
(-0.119183 0 0)
(-0.118119 0 0)
(-0.117079 0 0)
(-0.116061 0 0)
(-0.115068 0 0)
(-0.114097 0 0)
(-0.113149 0 0)
(-0.112224 0 0)
(-0.111321 0 0)
(-0.11044 0 0)
(-0.109581 0 0)
(-0.108742 0 0)
(-0.107923 0 0)
(-0.107124 0 0)
(-0.106344 0 0)
(-0.105581 0 0)
(-0.104835 0 0)
(-0.104105 0 0)
(-0.103391 0 0)
(-0.10269 0 0)
(-0.102003 0 0)
(-0.101327 0 0)
(-0.100663 0 0)
(-0.100009 0 0)
(-0.0993648 0 0)
(-0.0987287 0 0)
(-0.0981002 0 0)
(-0.0974784 0 0)
(-0.0968626 0 0)
(-0.096252 0 0)
(-0.095646 0 0)
(-0.0950439 0 0)
(-0.0944452 0 0)
(-0.0938495 0 0)
(-0.0932561 0 0)
(-0.0926648 0 0)
(-0.0920752 0 0)
(-0.091487 0 0)
(-0.0908999 0 0)
(-0.0903137 0 0)
(-0.0897284 0 0)
(-0.0891436 0 0)
(-0.0885594 0 0)
(-0.0879757 0 0)
(-0.0873924 0 0)
(-0.0868094 0 0)
(-0.0862269 0 0)
(-0.0856448 0 0)
(-0.0850631 0 0)
(-0.0844819 0 0)
(-0.0839013 0 0)
(-0.0833212 0 0)
(-0.0827417 0 0)
(-0.082163 0 0)
(-0.081585 0 0)
(-0.081008 0 0)
(-0.0804318 0 0)
(-0.0798566 0 0)
(-0.0792825 0 0)
(-0.0787095 0 0)
(-0.0781377 0 0)
(-0.0775672 0 0)
(-0.076998 0 0)
(-0.0764302 0 0)
(-0.0758638 0 0)
(-0.0752989 0 0)
(-0.0747355 0 0)
(-0.0741737 0 0)
(-0.0736136 0 0)
(-0.0730551 0 0)
(-0.0724982 0 0)
(-0.0719432 0 0)
(-0.0713899 0 0)
(-0.0708383 0 0)
(-0.0702886 0 0)
(-0.0697407 0 0)
(-0.0691947 0 0)
(-0.0686506 0 0)
(-0.0681083 0 0)
(-0.067568 0 0)
(-0.0670295 0 0)
(-0.066493 0 0)
(-0.0659584 0 0)
(-0.0654258 0 0)
(-0.0648951 0 0)
(-0.0643663 0 0)
(-0.0638395 0 0)
(-0.0633147 0 0)
(-0.0627917 0 0)
(-0.0622708 0 0)
(-0.0617517 0 0)
(-0.0612346 0 0)
(-0.0607195 0 0)
(-0.0602063 0 0)
(-0.0596949 0 0)
(-0.0591855 0 0)
(-0.058678 0 0)
(-0.0581724 0 0)
(-0.0576687 0 0)
(-0.0571669 0 0)
(-0.0566669 0 0)
(-0.0561687 0 0)
(-0.0556724 0 0)
(-0.0551779 0 0)
(-0.0546853 0 0)
(-0.0541944 0 0)
(-0.0537053 0 0)
(-0.053218 0 0)
(-0.0527324 0 0)
(-0.0522486 0 0)
(-0.0517665 0 0)
(-0.0512861 0 0)
(-0.0508074 0 0)
(-0.0503304 0 0)
(-0.049855 0 0)
(-0.0493813 0 0)
(-0.0489092 0 0)
(-0.0484387 0 0)
(-0.0479698 0 0)
(-0.0475025 0 0)
(-0.0470367 0 0)
(-0.0465725 0 0)
(-0.0461098 0 0)
(-0.0456486 0 0)
(-0.045189 0 0)
(-0.0447307 0 0)
(-0.044274 0 0)
(-0.0438186 0 0)
(-0.0433647 0 0)
(-0.0429122 0 0)
(-0.0424611 0 0)
(-0.0420114 0 0)
(-0.041563 0 0)
(-0.0411159 0 0)
(-0.0406701 0 0)
(-0.0402257 0 0)
(-0.0397825 0 0)
(-0.0393406 0 0)
(-0.0388999 0 0)
(-0.0384605 0 0)
(-0.0380223 0 0)
(-0.0375852 0 0)
(-0.0371494 0 0)
(-0.0367147 0 0)
(-0.0362811 0 0)
(-0.0358487 0 0)
(-0.0354174 0 0)
(-0.0349871 0 0)
(-0.034558 0 0)
(-0.0341299 0 0)
(-0.0337029 0 0)
(-0.0332769 0 0)
(-0.0328519 0 0)
(-0.0324279 0 0)
(-0.0320049 0 0)
(-0.0315828 0 0)
(-0.0311618 0 0)
(-0.0307416 0 0)
(-0.0303224 0 0)
(-0.0299041 0 0)
(-0.0294867 0 0)
(-0.0290702 0 0)
(-0.0286545 0 0)
(-0.0282398 0 0)
(-0.0278258 0 0)
(-0.0274127 0 0)
(-0.0270005 0 0)
(-0.026589 0 0)
(-0.0261784 0 0)
(-0.0257686 0 0)
(-0.0253595 0 0)
(-0.0249513 0 0)
(-0.0245438 0 0)
(-0.024137 0 0)
(-0.0237311 0 0)
(-0.0233259 0 0)
(-0.0229214 0 0)
(-0.0225177 0 0)
(-0.0221148 0 0)
(-0.0217126 0 0)
(-0.0213111 0 0)
(-0.0209104 0 0)
(-0.0205105 0 0)
(-0.0201113 0 0)
(-0.0197128 0 0)
(-0.0193151 0 0)
(-0.0189182 0 0)
(-0.0185221 0 0)
(-0.0181267 0 0)
(-0.0177321 0 0)
(-0.0173383 0 0)
(-0.0169453 0 0)
(-0.0165531 0 0)
(-0.0161618 0 0)
(-0.0157713 0 0)
(-0.0153816 0 0)
(-0.0149928 0 0)
(-0.0146049 0 0)
(-0.0142178 0 0)
(-0.0138317 0 0)
(-0.0134464 0 0)
(-0.013062 0 0)
(-0.0126785 0 0)
(-0.0122959 0 0)
(-0.0119142 0 0)
(-0.0115333 0 0)
(-0.0111533 0 0)
(-0.0107742 0 0)
(-0.0103958 0 0)
(-0.0100182 0 0)
(-0.00964129 0 0)
(-0.00926505 0 0)
(-0.0088894 0 0)
(-0.00851426 0 0)
(-0.00813953 0 0)
(-0.00776513 0 0)
(-0.00739094 0 0)
(-0.00701685 0 0)
(-0.00664273 0 0)
(-0.00626847 0 0)
(-0.00589394 0 0)
(-0.005519 0 0)
(-0.00514355 0 0)
(-0.00476746 0 0)
(-0.00439065 0 0)
(-0.00401304 0 0)
(-0.00363456 0 0)
(-0.00325518 0 0)
(-0.0028749 0 0)
(-0.00249372 0 0)
(-0.0021117 0 0)
(-0.00172891 0 0)
(-0.00134545 0 0)
(-0.000961446 0 0)
(-0.000577034 0 0)
(-0.000192373 0 0)
(0.000192373 0 0)
(0.000577034 0 0)
(0.000961446 0 0)
(0.00134545 0 0)
(0.00172891 0 0)
(0.0021117 0 0)
(0.00249372 0 0)
(0.0028749 0 0)
(0.00325518 0 0)
(0.00363456 0 0)
(0.00401304 0 0)
(0.00439065 0 0)
(0.00476746 0 0)
(0.00514355 0 0)
(0.005519 0 0)
(0.00589394 0 0)
(0.00626847 0 0)
(0.00664273 0 0)
(0.00701685 0 0)
(0.00739094 0 0)
(0.00776513 0 0)
(0.00813953 0 0)
(0.00851426 0 0)
(0.0088894 0 0)
(0.00926505 0 0)
(0.00964129 0 0)
(0.0100182 0 0)
(0.0103958 0 0)
(0.0107742 0 0)
(0.0111533 0 0)
(0.0115333 0 0)
(0.0119142 0 0)
(0.0122959 0 0)
(0.0126785 0 0)
(0.013062 0 0)
(0.0134464 0 0)
(0.0138317 0 0)
(0.0142178 0 0)
(0.0146049 0 0)
(0.0149928 0 0)
(0.0153816 0 0)
(0.0157713 0 0)
(0.0161618 0 0)
(0.0165531 0 0)
(0.0169453 0 0)
(0.0173383 0 0)
(0.0177321 0 0)
(0.0181267 0 0)
(0.0185221 0 0)
(0.0189182 0 0)
(0.0193151 0 0)
(0.0197128 0 0)
(0.0201113 0 0)
(0.0205105 0 0)
(0.0209104 0 0)
(0.0213111 0 0)
(0.0217126 0 0)
(0.0221148 0 0)
(0.0225177 0 0)
(0.0229214 0 0)
(0.0233259 0 0)
(0.0237311 0 0)
(0.024137 0 0)
(0.0245438 0 0)
(0.0249513 0 0)
(0.0253595 0 0)
(0.0257686 0 0)
(0.0261784 0 0)
(0.026589 0 0)
(0.0270005 0 0)
(0.0274127 0 0)
(0.0278258 0 0)
(0.0282398 0 0)
(0.0286545 0 0)
(0.0290702 0 0)
(0.0294867 0 0)
(0.0299041 0 0)
(0.0303224 0 0)
(0.0307416 0 0)
(0.0311618 0 0)
(0.0315828 0 0)
(0.0320049 0 0)
(0.0324279 0 0)
(0.0328519 0 0)
(0.0332769 0 0)
(0.0337029 0 0)
(0.0341299 0 0)
(0.034558 0 0)
(0.0349871 0 0)
(0.0354174 0 0)
(0.0358487 0 0)
(0.0362811 0 0)
(0.0367147 0 0)
(0.0371494 0 0)
(0.0375852 0 0)
(0.0380223 0 0)
(0.0384605 0 0)
(0.0388999 0 0)
(0.0393406 0 0)
(0.0397825 0 0)
(0.0402257 0 0)
(0.0406701 0 0)
(0.0411159 0 0)
(0.041563 0 0)
(0.0420114 0 0)
(0.0424611 0 0)
(0.0429122 0 0)
(0.0433647 0 0)
(0.0438186 0 0)
(0.044274 0 0)
(0.0447307 0 0)
(0.045189 0 0)
(0.0456486 0 0)
(0.0461098 0 0)
(0.0465725 0 0)
(0.0470367 0 0)
(0.0475025 0 0)
(0.0479698 0 0)
(0.0484387 0 0)
(0.0489092 0 0)
(0.0493813 0 0)
(0.049855 0 0)
(0.0503304 0 0)
(0.0508074 0 0)
(0.0512861 0 0)
(0.0517665 0 0)
(0.0522486 0 0)
(0.0527324 0 0)
(0.053218 0 0)
(0.0537053 0 0)
(0.0541944 0 0)
(0.0546853 0 0)
(0.0551779 0 0)
(0.0556724 0 0)
(0.0561687 0 0)
(0.0566669 0 0)
(0.0571669 0 0)
(0.0576687 0 0)
(0.0581724 0 0)
(0.058678 0 0)
(0.0591855 0 0)
(0.0596949 0 0)
(0.0602063 0 0)
(0.0607195 0 0)
(0.0612346 0 0)
(0.0617517 0 0)
(0.0622708 0 0)
(0.0627917 0 0)
(0.0633147 0 0)
(0.0638395 0 0)
(0.0643663 0 0)
(0.0648951 0 0)
(0.0654258 0 0)
(0.0659584 0 0)
(0.066493 0 0)
(0.0670295 0 0)
(0.067568 0 0)
(0.0681083 0 0)
(0.0686506 0 0)
(0.0691947 0 0)
(0.0697407 0 0)
(0.0702886 0 0)
(0.0708383 0 0)
(0.0713899 0 0)
(0.0719432 0 0)
(0.0724982 0 0)
(0.0730551 0 0)
(0.0736136 0 0)
(0.0741737 0 0)
(0.0747355 0 0)
(0.0752989 0 0)
(0.0758638 0 0)
(0.0764302 0 0)
(0.076998 0 0)
(0.0775672 0 0)
(0.0781377 0 0)
(0.0787095 0 0)
(0.0792825 0 0)
(0.0798566 0 0)
(0.0804318 0 0)
(0.081008 0 0)
(0.081585 0 0)
(0.082163 0 0)
(0.0827417 0 0)
(0.0833212 0 0)
(0.0839013 0 0)
(0.0844819 0 0)
(0.0850631 0 0)
(0.0856448 0 0)
(0.0862269 0 0)
(0.0868094 0 0)
(0.0873924 0 0)
(0.0879757 0 0)
(0.0885594 0 0)
(0.0891436 0 0)
(0.0897284 0 0)
(0.0903137 0 0)
(0.0908999 0 0)
(0.091487 0 0)
(0.0920752 0 0)
(0.0926648 0 0)
(0.0932561 0 0)
(0.0938495 0 0)
(0.0944452 0 0)
(0.0950439 0 0)
(0.095646 0 0)
(0.096252 0 0)
(0.0968626 0 0)
(0.0974784 0 0)
(0.0981002 0 0)
(0.0987287 0 0)
(0.0993648 0 0)
(0.100009 0 0)
(0.100663 0 0)
(0.101327 0 0)
(0.102003 0 0)
(0.10269 0 0)
(0.103391 0 0)
(0.104105 0 0)
(0.104835 0 0)
(0.105581 0 0)
(0.106344 0 0)
(0.107124 0 0)
(0.107923 0 0)
(0.108742 0 0)
(0.109581 0 0)
(0.11044 0 0)
(0.111321 0 0)
(0.112224 0 0)
(0.113149 0 0)
(0.114097 0 0)
(0.115068 0 0)
(0.116061 0 0)
(0.117079 0 0)
(0.118119 0 0)
(0.119183 0 0)
(0.12027 0 0)
(0.12138 0 0)
(0.122513 0 0)
(0.123668 0 0)
(0.124846 0 0)
(0.126045 0 0)
(0.127266 0 0)
(0.128508 0 0)
(0.129771 0 0)
(0.131054 0 0)
(0.132356 0 0)
(0.133677 0 0)
(0.135017 0 0)
(0.136375 0 0)
(0.13775 0 0)
(0.139142 0 0)
(0.14055 0 0)
(0.141974 0 0)
(0.143414 0 0)
(0.144868 0 0)
(0.146336 0 0)
(0.147817 0 0)
(0.149312 0 0)
(0.150819 0 0)
(0.152339 0 0)
(0.15387 0 0)
(0.155412 0 0)
(0.156965 0 0)
(0.158529 0 0)
(0.160102 0 0)
(0.161685 0 0)
(0.163277 0 0)
(0.164878 0 0)
(0.166487 0 0)
(0.168105 0 0)
(0.16973 0 0)
(0.171362 0 0)
(0.173002 0 0)
(0.174649 0 0)
(0.176302 0 0)
(0.177962 0 0)
(0.179627 0 0)
(0.181299 0 0)
(0.182976 0 0)
(0.184659 0 0)
(0.186346 0 0)
(0.188039 0 0)
(0.189737 0 0)
(0.191439 0 0)
(0.193145 0 0)
(0.194856 0 0)
(0.196571 0 0)
(0.19829 0 0)
(0.200013 0 0)
(0.201739 0 0)
(0.203469 0 0)
(0.205202 0 0)
(0.206939 0 0)
(0.208679 0 0)
(0.210422 0 0)
(0.212167 0 0)
(0.213916 0 0)
(0.215667 0 0)
(0.217421 0 0)
(0.219178 0 0)
(0.220937 0 0)
(0.222698 0 0)
(0.224461 0 0)
(0.226227 0 0)