/*--------------------------------*- C++ -*----------------------------------*\
| =========                 |                                                 |
| \\      /  F ield         | OpenFOAM: The Open Source CFD Toolbox           |
|  \\    /   O peration     | Version:  4.1                                   |
|   \\  /    A nd           | Web:      www.OpenFOAM.org                      |
|    \\/     M anipulation  |                                                 |
\*---------------------------------------------------------------------------*/
FoamFile
{
    version     2.0;
    format      ascii;
    class       volVectorField;
    location    "1";
    object      U;
}
// * * * * * * * * * * * * * * * * * * * * * * * * * * * * * * * * * * * * * //

dimensions      [0 1 -1 0 0 0 0];

internalField   nonuniform List<vector> 
400
(
(4.08076e-05 -3.90084e-05 0)
(-0.000448359 0.000171656 0)
(-0.00166148 0.00031151 0)
(-0.00318663 0.000383262 0)
(-0.00483982 0.000390683 0)
(-0.0064205 0.000365229 0)
(-0.00783717 0.000317694 0)
(-0.0090128 0.000256598 0)
(-0.00989854 0.000183495 0)
(-0.010449 9.9494e-05 0)
(-0.0106265 5.19426e-06 0)
(-0.0104006 -9.72641e-05 0)
(-0.00975305 -0.000204064 0)
(-0.00868927 -0.000307648 0)
(-0.00724229 -0.000397406 0)
(-0.00550725 -0.000453905 0)
(-0.00362304 -0.000457694 0)
(-0.00186732 -0.000372097 0)
(-0.000487122 -0.000202075 0)
(5.05252e-05 4.33276e-05 0)
(-0.000168496 0.000442931 0)
(-0.00180141 0.00176541 0)
(-0.0048133 0.00267141 0)
(-0.00841129 0.00310294 0)
(-0.0122221 0.00313452 0)
(-0.0158455 0.00290786 0)
(-0.0190714 0.00250895 0)
(-0.0217277 0.00199182 0)
(-0.0237004 0.00138083 0)
(-0.0248913 0.000690999 0)
(-0.025224 -6.39958e-05 0)
(-0.0246424 -0.000863334 0)
(-0.02312 -0.00167403 0)
(-0.0206804 -0.00244294 0)
(-0.0174082 -0.00309222 0)
(-0.0135074 -0.00350613 0)
(-0.00927325 -0.00354757 0)
(-0.00524462 -0.00305096 0)
(-0.00190913 -0.00197995 0)
(-0.000162654 -0.000470104 0)
(-0.000333253 0.00169264 0)
(-0.00291395 0.00481822 0)
(-0.00728598 0.00682257 0)
(-0.0123565 0.00772426 0)
(-0.0176427 0.00773303 0)
(-0.0226314 0.00713608 0)
(-0.0270488 0.00612708 0)
(-0.0306692 0.00482852 0)
(-0.033342 0.00330477 0)
(-0.0349401 0.00159769 0)
(-0.0353652 -0.000253966 0)
(-0.0345464 -0.00219713 0)
(-0.0324508 -0.00415158 0)
(-0.0291103 -0.00599374 0)
(-0.0246351 -0.00754405 0)
(-0.0192897 -0.00854772 0)
(-0.0134551 -0.00870025 0)
(-0.00782612 -0.00766379 0)
(-0.00303555 -0.00530518 0)
(-0.000318803 -0.00177321 0)
(-0.000452709 0.00340878 0)
(-0.00375082 0.00879811 0)
(-0.00916496 0.0120779 0)
(-0.0153368 0.0134706 0)
(-0.0217029 0.0133919 0)
(-0.027674 0.0123068 0)
(-0.0329447 0.0105343 0)
(-0.0372608 0.00827453 0)
(-0.0404536 0.00563759 0)
(-0.0423779 0.00269541 0)
(-0.0429191 -0.000485581 0)
(-0.041989 -0.00381699 0)
(-0.0395386 -0.00716567 0)
(-0.0355904 -0.010327 0)
(-0.0302557 -0.0130017 0)
(-0.0238304 -0.0147688 0)
(-0.0167518 -0.0151202 0)
(-0.00984869 -0.0135002 0)
(-0.00388576 -0.00961588 0)
(-0.000424761 -0.00353475 0)
(-0.000535292 0.00551154 0)
(-0.00441085 0.0135811 0)
(-0.0107067 0.0183059 0)
(-0.017816 0.020211 0)
(-0.0251009 0.0199861 0)
(-0.0319072 0.0183112 0)
(-0.0379117 0.0156494 0)
(-0.0428457 0.0122859 0)
(-0.0465318 0.0083782 0)
(-0.0488116 0.00402669 0)
(-0.0495516 -0.000677596 0)
(-0.0486376 -0.00561369 0)
(-0.0459879 -0.0105949 0)
(-0.0415923 -0.015328 0)
(-0.0355382 -0.0193737 0)
(-0.0281335 -0.0221097 0)
(-0.0198656 -0.0227721 0)
(-0.0117182 -0.0205241 0)
(-0.00462037 -0.014853 0)
(-0.000496275 -0.00569182 0)
(-0.00061176 0.00791897 0)
(-0.00503996 0.0190431 0)
(-0.0122014 0.0253754 0)
(-0.0202385 0.0278172 0)
(-0.0284373 0.0273969 0)
(-0.0360808 0.0250508 0)
(-0.0428357 0.0214064 0)
(-0.0484267 0.0168396 0)
(-0.0526744 0.0115529 0)
(-0.0554092 0.00566762 0)
(-0.056475 -0.000711078 0)
(-0.0557192 -0.0074406 0)
(-0.0530062 -0.0142878 0)
(-0.0482645 -0.0208675 0)
(-0.0415253 -0.0265783 0)
(-0.0330843 -0.0305483 0)
(-0.0234752 -0.0316819 0)
(-0.0138781 -0.0287713 0)
(-0.0054477 -0.0210173 0)
(-0.000570733 -0.00820429 0)
(-0.000698477 0.0106594 0)
(-0.00574784 0.0252448 0)
(-0.0138773 0.0333647 0)
(-0.0229485 0.0363729 0)
(-0.0321627 0.0357086 0)
(-0.0407397 0.0326116 0)
(-0.0483426 0.0278983 0)
(-0.054699 0.0220411 0)
(-0.0596351 0.0152832 0)
(-0.0629749 0.00775401 0)
(-0.0645372 -0.000444558 0)
(-0.0641187 -0.0091685 0)
(-0.0615057 -0.0181548 0)
(-0.0565267 -0.0269303 0)
(-0.0491088 -0.0347072 0)
(-0.0394913 -0.0402985 0)
(-0.028235 -0.0421634 0)
(-0.0167659 -0.0385857 0)
(-0.00656161 -0.0283794 0)
(-0.000671553 -0.0111759 0)
(-0.000810377 0.0137921 0)
(-0.00662215 0.0323054 0)
(-0.0159105 0.0424109 0)
(-0.0261986 0.0460083 0)
(-0.0365902 0.0450394 0)
(-0.0462419 0.0411037 0)
(-0.0548246 0.0352377 0)
(-0.0620836 0.0280163 0)
(-0.0678644 0.0197166 0)
(-0.0719953 0.0104581 0)
(-0.0742736 0.000313056 0)
(-0.0744379 -0.0106065 0)
(-0.0721699 -0.0220406 0)
(-0.0671483 -0.0334485 0)
(-0.0591229 -0.0438381 0)
(-0.048193 -0.0516287 0)
(-0.0348856 -0.0546668 0)
(-0.0209089 -0.05051 0)
(-0.00820321 -0.0373981 0)
(-0.00083048 -0.0147955 0)
(-0.000961725 0.0174327 0)
(-0.00774141 0.0404356 0)
(-0.0184492 0.0527423 0)
(-0.0301871 0.0569268 0)
(-0.0419435 0.0555611 0)
(-0.0528194 0.0506752 0)
(-0.062511 0.0435655 0)
(-0.0708057 0.0349163 0)
(-0.0775908 0.0250311 0)
(-0.0827209 0.0139958 0)
(-0.0859865 0.00181651 0)
(-0.0870698 -0.0114768 0)
(-0.0855272 -0.0256857 0)
(-0.0808282 -0.0402532 0)
(-0.0724418 -0.053991 0)
(-0.0601796 -0.0648448 0)
(-0.0443955 -0.0698153 0)
(-0.0270561 -0.0653813 0)
(-0.0107399 -0.0488367 0)
(-0.00109874 -0.0194074 0)
(-0.00117108 0.021722 0)
(-0.00920054 0.0498825 0)
(-0.0216543 0.0646098 0)
(-0.0351057 0.0693288 0)
(-0.0484074 0.0674232 0)
(-0.0606257 0.0614407 0)
(-0.0715098 0.0529883 0)
(-0.0809265 0.0428677 0)
(-0.0888393 0.0314004 0)
(-0.0951645 0.0186115 0)
(-0.099718 0.00439574 0)
(-0.102146 -0.0113697 0)
(-0.101877 -0.028641 0)
(-0.0981151 -0.0469497 0)
(-0.0899199 -0.0649778 0)
(-0.0765889 -0.0801532 0)
(-0.0580356 -0.0883352 0)
(-0.0363076 -0.0843732 0)
(-0.014778 -0.0638778 0)
(-0.00157444 -0.0255941 0)
(-0.00147643 0.0269036 0)
(-0.0111394 0.0610184 0)
(-0.0257255 0.0783571 0)
(-0.0411575 0.0834532 0)
(-0.0561318 0.0807695 0)
(-0.0697254 0.0734782 0)
(-0.0817791 0.0635608 0)
(-0.0922922 0.051943 0)
(-0.101348 0.0389581 0)
(-0.108976 0.0245423 0)
(-0.115069 0.00842799 0)
(-0.11929 -0.00974841 0)
(-0.120968 -0.0302327 0)
(-0.11902 -0.0528246 0)
(-0.11198 -0.0762492 0)
(-0.098342 -0.0974798 0)
(-0.0771615 -0.110932 0)
(-0.0500888 -0.109035 0)
(-0.0212585 -0.0843241 0)
(-0.00243719 -0.0343645 0)
(-0.0019336 0.0332339 0)
(-0.0137812 0.0741881 0)
(-0.0309505 0.094246 0)
(-0.0485932 0.0994022 0)
(-0.0652316 0.0955792 0)
(-0.0800491 0.0866894 0)
(-0.0930306 0.0751621 0)
(-0.104378 0.0620479 0)
(-0.114345 0.0476884 0)
(-0.123136 0.0319082 0)
(-0.13079 0.0142324 0)
(-0.137066 -0.00603679 0)
(-0.141286 -0.0296014 0)
(-0.142129 -0.0567919 0)
(-0.137582 -0.0867003 0)
(-0.125082 -0.116123 0)
(-0.102333 -0.137879 0)
(-0.0696719 -0.141038 0)
(-0.0314269 -0.112662 0)
(-0.00398689 -0.0473645 0)
(-0.00267567 0.0413555 0)
(-0.0174656 0.0901126 0)
(-0.0376454 0.112766 0)
(-0.0575589 0.117326 0)
(-0.0755501 0.111751 0)
(-0.0910842 0.100805 0)
(-0.104353 0.0874391 0)
(-0.115848 0.0728127 0)
(-0.126036 0.0572695 0)
(-0.135353 0.0405079 0)
(-0.144052 0.0218182 0)
(-0.152089 9.51482e-05 0)
(-0.158924 -0.0259818 0)
(-0.16318 -0.0575833 0)
(-0.162488 -0.0946418 0)
(-0.153214 -0.134372 0)
(-0.13142 -0.168275 0)
(-0.094812 -0.181388 0)
(-0.0464259 -0.151796 0)
(-0.00667594 -0.06716 0)
(-0.0038885 0.051673 0)
(-0.022772 0.108989 0)
(-0.0462566 0.133737 0)
(-0.0680837 0.136652 0)
(-0.0864558 0.128482 0)
(-0.10148 0.114905 0)
(-0.113648 0.09943 0)
(-0.123855 0.0832776 0)
(-0.132808 0.0667785 0)
(-0.141199 0.0495025 0)
(-0.149524 0.0305135 0)
(-0.158013 0.00828901 0)
(-0.166444 -0.0191885 0)
(-0.173688 -0.0541707 0)
(-0.177532 -0.0979394 0)
(-0.173742 -0.14904 0)
(-0.157099 -0.198714 0)
(-0.121417 -0.228426 0)
(-0.0661561 -0.20352 0)
(-0.0110651 -0.0970379 0)
(-0.00601399 0.0663568 0)
(-0.0303016 0.132409 0)
(-0.0565933 0.157695 0)
(-0.0788912 0.156871 0)
(-0.0954013 0.144639 0)
(-0.107485 0.127504 0)
(-0.116042 0.109477 0)
(-0.122504 0.0917024 0)
(-0.127802 0.0744305 0)
(-0.132861 0.0570856 0)
(-0.138372 0.0385414 0)
(-0.144842 0.0169416 0)
(-0.152502 -0.0103337 0)
(-0.160823 -0.0466125 0)
(-0.168513 -0.0948157 0)
(-0.171741 -0.155815 0)
(-0.165425 -0.22253 0)
(-0.139115 -0.275547 0)
(-0.0870224 -0.265947 0)
(-0.0175896 -0.140624 0)
(-0.00969038 0.0849487 0)
(-0.0414904 0.15829 0)
(-0.0682627 0.181399 0)
(-0.0872011 0.174233 0)
(-0.0969621 0.156485 0)
(-0.101464 0.135139 0)
(-0.102136 0.114423 0)
(-0.101077 0.0951888 0)
(-0.0993324 0.0774829 0)
(-0.0979385 0.0605688 0)
(-0.0976403 0.0432018 0)
(-0.0991008 0.0233887 0)
(-0.102995 -0.00176423 0)
(-0.109583 -0.0362536 0)
(-0.119186 -0.0844011 0)
(-0.129508 -0.149947 0)
(-0.137966 -0.229806 0)
(-0.13112 -0.308895 0)
(-0.0994068 -0.328398 0)
(-0.0256793 -0.198154 0)
(-0.0157672 0.11659 0)
(-0.0544842 0.190225 0)
(-0.074136 0.204073 0)
(-0.0812209 0.185121 0)
(-0.0759122 0.159445 0)
(-0.066058 0.133232 0)
(-0.0533793 0.11004 0)
(-0.0405186 0.0899537 0)
(-0.028362 0.0725388 0)
(-0.0178182 0.0568232 0)
(-0.00945877 0.0414913 0)
(-0.00389192 0.0246434 0)
(-0.00205284 0.00355155 0)
(-0.00485469 -0.0257252 0)
(-0.0144007 -0.068095 0)
(-0.0305558 -0.129637 0)
(-0.0556559 -0.212687 0)
(-0.0762786 -0.31248 0)
(-0.0855005 -0.372199 0)
(-0.0317139 -0.265487 0)
(-0.0255278 0.147245 0)
(-0.0688091 0.210197 0)
(-0.0593827 0.206872 0)
(-0.0374725 0.1745 0)
(-0.00357507 0.142472 0)
(0.0293539 0.114162 0)
(0.0608936 0.0911291 0)
(0.088756 0.0725108 0)
(0.112949 0.0572793 0)
(0.133207 0.0443052 0)
(0.149487 0.0323243 0)
(0.161506 0.0197823 0)
(0.168378 0.00453513 0)
(0.168852 -0.0164809 0)
(0.159578 -0.0475643 0)
(0.138645 -0.0950904 0)
(0.0979642 -0.165787 0)
(0.0473606 -0.267727 0)
(-0.0200782 -0.363111 0)
(-0.0230634 -0.314799 0)
(-0.0175794 0.219235 0)
(-0.0167296 0.219302 0)
(0.058008 0.180088 0)
(0.124248 0.132751 0)
(0.191078 0.0981357 0)
(0.246201 0.0730225 0)
(0.292861 0.0547475 0)
(0.330898 0.0413827 0)
(0.361862 0.0313031 0)
(0.386636 0.0233614 0)
(0.405927 0.0165208 0)
(0.41995 0.00976402 0)
(0.428166 0.00177734 0)
(0.429306 -0.00913925 0)
(0.419951 -0.0258547 0)
(0.396707 -0.052739 0)
(0.348235 -0.0980917 0)
(0.27582 -0.179084 0)
(0.145292 -0.289404 0)
(0.0371974 -0.329152 0)
(0.212377 0.131181 0)
(0.301095 0.10266 0)
(0.456517 0.0680493 0)
(0.547397 0.0435817 0)
(0.61797 0.0273648 0)
(0.667526 0.0175808 0)
(0.703858 0.0114478 0)
(0.730538 0.00761178 0)
(0.750376 0.00511282 0)
(0.765109 0.00339898 0)
(0.775809 0.00207823 0)
(0.782929 0.000856848 0)
(0.786285 -0.000602231 0)
(0.784887 -0.00263067 0)
(0.776448 -0.0059722 0)
(0.757117 -0.0113841 0)
(0.717448 -0.0213917 0)
(0.648018 -0.0403889 0)
(0.492163 -0.074847 0)
(0.287006 -0.136852 0)
)
;

boundaryField
{
    movingWall
    {
        type            fixedValue;
        value           uniform (1 0 0);
    }
    fixedWalls
    {
        type            noSlip;
    }
    frontAndBack
    {
        type            empty;
    }
}


// ************************************************************************* //
