/*--------------------------------*- C++ -*----------------------------------*\
| =========                 |                                                 |
| \\      /  F ield         | OpenFOAM: The Open Source CFD Toolbox           |
|  \\    /   O peration     | Version:  4.1                                   |
|   \\  /    A nd           | Web:      www.OpenFOAM.org                      |
|    \\/     M anipulation  |                                                 |
\*---------------------------------------------------------------------------*/
FoamFile
{
    version     2.0;
    format      ascii;
    class       volVectorField;
    location    "0.18";
    object      U;
}
// * * * * * * * * * * * * * * * * * * * * * * * * * * * * * * * * * * * * * //

dimensions      [0 1 -1 0 0 0 0];

internalField   nonuniform List<vector> 
1600
(
(1.46375e-05 -1.62028e-05 0)
(1.27404e-05 3.4718e-05 0)
(-8.53871e-05 0.000127621 0)
(-0.000301798 0.000235115 0)
(-0.000639852 0.00034097 0)
(-0.00109036 0.000435913 0)
(-0.00163709 0.000514754 0)
(-0.00226004 0.000574854 0)
(-0.00293749 0.000615196 0)
(-0.00364737 0.000635809 0)
(-0.0043682 0.000637398 0)
(-0.00507955 0.000621105 0)
(-0.00576252 0.000588352 0)
(-0.00639988 0.00054074 0)
(-0.00697629 0.00047999 0)
(-0.00747834 0.000407897 0)
(-0.00789467 0.000326319 0)
(-0.00821596 0.000237166 0)
(-0.00843505 0.000142399 0)
(-0.00854692 4.40352e-05 0)
(-0.00854878 -5.58511e-05 0)
(-0.00844012 -0.000155123 0)
(-0.00822279 -0.000251588 0)
(-0.00790101 -0.000343003 0)
(-0.00748145 -0.000427097 0)
(-0.00697324 -0.000501592 0)
(-0.00638796 -0.000564248 0)
(-0.0057396 -0.000612905 0)
(-0.00504443 -0.000645551 0)
(-0.00432085 -0.000660398 0)
(-0.00358912 -0.000655985 0)
(-0.00287097 -0.000631297 0)
(-0.00218903 -0.000585943 0)
(-0.00156617 -0.000520379 0)
(-0.00102437 -0.000436256 0)
(-0.000583306 -0.000336941 0)
(-0.000258125 -0.000228362 0)
(-5.62928e-05 -0.000120391 0)
(2.77515e-05 -2.94318e-05 0)
(1.82174e-05 1.83456e-05 0)
(-3.87083e-05 -1.69211e-05 0)
(-0.00022355 0.000212882 0)
(-0.000652588 0.000599115 0)
(-0.00137292 0.00103881 0)
(-0.00239243 0.00147021 0)
(-0.00368987 0.00185679 0)
(-0.00522647 0.00217766 0)
(-0.00695302 0.00242191 0)
(-0.00881503 0.00258515 0)
(-0.0107562 0.00266727 0)
(-0.0127208 0.00267098 0)
(-0.0146555 0.00260082 0)
(-0.0165103 0.00246258 0)
(-0.0182395 0.0022628 0)
(-0.0198019 0.00200856 0)
(-0.0211618 0.00170731 0)
(-0.0222885 0.00136675 0)
(-0.023157 0.00099482 0)
(-0.0237482 0.000599668 0)
(-0.0240488 0.000189678 0)
(-0.0240513 -0.000226536 0)
(-0.0237547 -0.000640118 0)
(-0.0231641 -0.00104199 0)
(-0.0222912 -0.0014229 0)
(-0.0211542 -0.00177346 0)
(-0.0197776 -0.00208432 0)
(-0.0181925 -0.00234625 0)
(-0.0164363 -0.0025504 0)
(-0.0145521 -0.00268854 0)
(-0.0125885 -0.00275337 0)
(-0.0105986 -0.00273896 0)
(-0.00863866 -0.00264122 0)
(-0.00676711 -0.00245866 0)
(-0.00504205 -0.00219324 0)
(-0.00351861 -0.00185182 0)
(-0.00224518 -0.00144808 0)
(-0.00125817 -0.00100581 0)
(-0.000574896 -0.0005639 0)
(-0.000182462 -0.000185265 0)
(-2.85443e-05 2.86806e-05 0)
(-0.000134679 7.78845e-05 0)
(-0.000620461 0.000634909 0)
(-0.00147721 0.00143924 0)
(-0.00275676 0.00232476 0)
(-0.00446526 0.00318483 0)
(-0.00657122 0.00395294 0)
(-0.00901899 0.00458933 0)
(-0.0117376 0.00507236 0)
(-0.0146479 0.00539268 0)
(-0.0176671 0.00554935 0)
(-0.0207127 0.00554718 0)
(-0.0237049 0.00539481 0)
(-0.0265689 0.00510356 0)
(-0.0292355 0.00468651 0)
(-0.0316427 0.00415793 0)
(-0.033736 0.00353296 0)
(-0.035469 0.00282737 0)
(-0.0368038 0.00205746 0)
(-0.0377113 0.00124001 0)
(-0.0381712 0.00039228 0)
(-0.0381727 -0.000467983 0)
(-0.0377143 -0.00132258 0)
(-0.0368041 -0.00215287 0)
(-0.0354601 -0.00293991 0)
(-0.03371 -0.00366455 0)
(-0.0315913 -0.00430774 0)
(-0.0291513 -0.0048508 0)
(-0.0264462 -0.00527587 0)
(-0.0235412 -0.00556641 0)
(-0.0205089 -0.00570795 0)
(-0.0174286 -0.00568884 0)
(-0.0143841 -0.00550132 0)
(-0.0114614 -0.0051429 0)
(-0.00874566 -0.00461809 0)
(-0.00631722 -0.00394092 0)
(-0.00424596 -0.00313846 0)
(-0.00258447 -0.00225601 0)
(-0.00135907 -0.00136496 0)
(-0.000556797 -0.000574898 0)
(-0.000118354 -5.14881e-05 0)
(-0.00024932 0.000292253 0)
(-0.00108807 0.00135517 0)
(-0.00242035 0.00271274 0)
(-0.0042891 0.00415384 0)
(-0.00669059 0.00553427 0)
(-0.00958038 0.00675938 0)
(-0.0128869 0.00777024 0)
(-0.016521 0.00853348 0)
(-0.0203831 0.00903398 0)
(-0.0243694 0.00926955 0)
(-0.0283758 0.0092471 0)
(-0.0323015 0.00897998 0)
(-0.0360513 0.008486 0)
(-0.0395374 0.00778607 0)
(-0.0426805 0.00690329 0)
(-0.045411 0.00586229 0)
(-0.0476696 0.00468891 0)
(-0.049408 0.00340993 0)
(-0.0505887 0.00205298 0)
(-0.0511863 0.000646514 0)
(-0.0511868 -0.000780238 0)
(-0.0505886 -0.00219731 0)
(-0.0494023 -0.00357408 0)
(-0.0476511 -0.00487947 0)
(-0.0453704 -0.00608217 0)
(-0.0426084 -0.0071511 0)
(-0.0394252 -0.00805588 0)
(-0.0358927 -0.0087676 0)
(-0.0320934 -0.00925968 0)
(-0.0281196 -0.00950895 0)
(-0.0240713 -0.00949705 0)
(-0.0200542 -0.00921201 0)
(-0.0161767 -0.00865042 0)
(-0.0125457 -0.00782001 0)
(-0.00926206 -0.0067432 0)
(-0.00641417 -0.00546183 0)
(-0.0040702 -0.00404364 0)
(-0.0022687 -0.00259129 0)
(-0.00100524 -0.00125476 0)
(-0.00022763 -0.000246994 0)
(-0.000369804 0.000635411 0)
(-0.00157851 0.00239869 0)
(-0.00340366 0.00445368 0)
(-0.00587227 0.00656039 0)
(-0.00896456 0.00854636 0)
(-0.0126195 0.0102936 0)
(-0.0167486 0.011726 0)
(-0.021245 0.0127992 0)
(-0.0259913 0.0134926 0)
(-0.0308656 0.0138029 0)
(-0.0357458 0.0137395 0)
(-0.0405138 0.0133211 0)
(-0.0450579 0.0125729 0)
(-0.049275 0.0115248 0)
(-0.0530718 0.0102101 0)
(-0.0563668 0.00866458 0)
(-0.0590901 0.00692583 0)
(-0.0611848 0.00503294 0)
(-0.0626071 0.00302634 0)
(-0.0633269 0.000947646 0)
(-0.0633282 -0.00116037 0)
(-0.062609 -0.00325389 0)
(-0.0611818 -0.00528822 0)
(-0.0590739 -0.00721802 0)
(-0.0563272 -0.00899775 0)
(-0.0529979 -0.0105822 0)
(-0.0491566 -0.0119275 0)
(-0.0448876 -0.0129918 0)
(-0.0402875 -0.0137368 0)
(-0.0354644 -0.0141295 0)
(-0.0305352 -0.0141436 0)
(-0.0256239 -0.0137623 0)
(-0.0208572 -0.0129809 0)
(-0.0163611 -0.0118105 0)
(-0.012255 -0.0102818 0)
(-0.0086451 -0.00845123 0)
(-0.00561678 -0.00640742 0)
(-0.00322474 -0.00428039 0)
(-0.00147961 -0.00225214 0)
(-0.000343471 -0.000567922 0)
(-0.000489947 0.00110786 0)
(-0.00206799 0.00377105 0)
(-0.00438621 0.00667275 0)
(-0.00745301 0.00955627 0)
(-0.0112289 0.0122298 0)
(-0.015633 0.0145577 0)
(-0.0205582 0.0164503 0)
(-0.0258797 0.0178544 0)
(-0.0314628 0.0187449 0)
(-0.037169 0.0191186 0)
(-0.0428608 0.0189883 0)
(-0.0484051 0.0183786 0)
(-0.0536766 0.0173234 0)
(-0.0585594 0.0158627 0)
(-0.0629494 0.0140412 0)
(-0.0667548 0.0119072 0)
(-0.0698976 0.00951143 0)
(-0.0723141 0.00690691 0)
(-0.0739553 0.00414842 0)
(-0.0747876 0.00129241 0)
(-0.0747928 -0.00160315 0)
(-0.0739688 -0.00447887 0)
(-0.0723296 -0.00727424 0)
(-0.0699053 -0.00992792 0)
(-0.0667427 -0.0123784 0)
(-0.0629045 -0.0145646 0)
(-0.0584694 -0.0164273 0)
(-0.0535313 -0.0179103 0)
(-0.0481986 -0.0189621 0)
(-0.0425919 -0.0195381 0)
(-0.0368428 -0.0196033 0)
(-0.0310906 -0.0191349 0)
(-0.0254786 -0.0181262 0)
(-0.0201503 -0.0165904 0)
(-0.015243 -0.0145659 0)
(-0.0108821 -0.0121216 0)
(-0.00717182 -0.00936455 0)
(-0.00418664 -0.00644699 0)
(-0.00195615 -0.00357519 0)
(-0.000459674 -0.00101569 0)
(-0.000607128 0.00170636 0)
(-0.00254622 0.00546855 0)
(-0.0053495 0.00936856 0)
(-0.0090064 0.0131414 0)
(-0.0134557 0.0165833 0)
(-0.018595 0.0195469 0)
(-0.0242963 0.021933 0)
(-0.0304161 0.0236825 0)
(-0.0368025 0.0247683 0)
(-0.0433011 0.0251886 0)
(-0.04976 0.0249609 0)
(-0.0560332 0.0241174 0)
(-0.0619835 0.0227015 0)
(-0.0674846 0.0207646 0)
(-0.0724231 0.018364 0)
(-0.0766995 0.0155616 0)
(-0.0802291 0.0124227 0)
(-0.0829427 0.00901542 0)
(-0.0847874 0.00541017 0)
(-0.0857265 0.00167952 0)
(-0.0857404 -0.00210205 0)
(-0.0848263 -0.00585826 0)
(-0.0829991 -0.00951136 0)
(-0.0802911 -0.0129826 0)
(-0.0767523 -0.0161931 0)
(-0.0724503 -0.0190644 0)
(-0.06747 -0.0215204 0)
(-0.0619132 -0.0234889 0)
(-0.0558972 -0.0249037 0)
(-0.0495537 -0.0257075 0)
(-0.0430266 -0.0258545 0)
(-0.036469 -0.0253149 0)
(-0.0300401 -0.0240781 0)
(-0.0239002 -0.0221582 0)
(-0.0182054 -0.0195989 0)
(-0.013101 -0.0164795 0)
(-0.00871282 -0.0129214 0)
(-0.00513726 -0.00909464 0)
(-0.0024252 -0.0052233 0)
(-0.000573744 -0.00158811 0)
(-0.000720691 0.00242649 0)
(-0.00301047 0.00748374 0)
(-0.00628817 0.0125341 0)
(-0.0105249 0.0173097 0)
(-0.015637 0.0216008 0)
(-0.0214989 0.0252532 0)
(-0.027961 0.0281628 0)
(-0.0348596 0.0302682 0)
(-0.0420251 0.0315429 0)
(-0.0492878 0.0319888 0)
(-0.0564819 0.0316301 0)
(-0.0634495 0.0305081 0)
(-0.070043 0.0286771 0)
(-0.0761274 0.0262011 0)
(-0.0815817 0.0231513 0)
(-0.0863001 0.0196044 0)
(-0.0901927 0.0156411 0)
(-0.0931863 0.0113458 0)
(-0.0952245 0.00680549 0)
(-0.0962684 0.00210969 0)
(-0.0962968 -0.00264954 0)
(-0.0953064 -0.00737805 0)
(-0.0933123 -0.0119799 0)
(-0.0903479 -0.0163577 0)
(-0.0864655 -0.020414 0)
(-0.0817358 -0.0240517 0)
(-0.0762484 -0.0271766 0)
(-0.070111 -0.0296988 0)
(-0.0634483 -0.0315359 0)
(-0.0564014 -0.0326157 0)
(-0.049125 -0.0328806 0)
(-0.0417855 -0.032291 0)
(-0.0345572 -0.0308309 0)
(-0.0276178 -0.0285127 0)
(-0.0211428 -0.0253828 0)
(-0.0152992 -0.0215277 0)
(-0.0102359 -0.0170798 0)
(-0.00607352 -0.0122223 0)
(-0.00288512 -0.00719282 0)
(-0.000685281 -0.00228209 0)
(-0.000831015 0.00326402 0)
(-0.00346209 0.00980869 0)
(-0.00720421 0.0161608 0)
(-0.012011 0.0220532 0)
(-0.0177763 0.0272742 0)
(-0.0243506 0.0316678 0)
(-0.0315613 0.0351291 0)
(-0.0392239 0.037598 0)
(-0.0471508 0.039052 0)
(-0.0551564 0.0394995 0)
(-0.0630617 0.0389736 0)
(-0.0706976 0.0375266 0)
(-0.0779073 0.0352255 0)
(-0.0845484 0.0321482 0)
(-0.0904935 0.0283812 0)
(-0.0956321 0.0240168 0)
(-0.0998701 0.0191524 0)
(-0.103131 0.013889 0)
(-0.105357 0.00833091 0)
(-0.106506 0.00258551 0)
(-0.106556 -0.00323709 0)
(-0.105503 -0.00902419 0)
(-0.103361 -0.0146609 0)
(-0.100165 -0.0200305 0)
(-0.0959672 -0.0250159 0)
(-0.0908405 -0.0295003 0)
(-0.0848775 -0.0333699 0)
(-0.0781901 -0.0365158 0)
(-0.0709093 -0.0388374 0)
(-0.0631838 -0.040246 0)
(-0.0551788 -0.0406692 0)
(-0.0470729 -0.0400561 0)
(-0.0390555 -0.0383819 0)
(-0.0313223 -0.0356547 0)
(-0.0240694 -0.0319204 0)
(-0.0174868 -0.0272693 0)
(-0.0117485 -0.0218412 0)
(-0.00700043 -0.0158289 0)
(-0.00333877 -0.00948053 0)
(-0.000795031 -0.00309506 0)
(-0.000938991 0.00421565 0)
(-0.00390448 0.0124368 0)
(-0.00810346 0.0202412 0)
(-0.0134727 0.0273642 0)
(-0.0198838 0.033596 0)
(-0.0271624 0.0387824 0)
(-0.0351121 0.042822 0)
(-0.0435272 0.0456599 0)
(-0.0522011 0.0472811 0)
(-0.0609325 0.0477036 0)
(-0.0695294 0.0469721 0)
(-0.0778122 0.0451523 0)
(-0.0856158 0.0423256 0)
(-0.0927914 0.0385857 0)
(-0.0992067 0.0340353 0)
(-0.104747 0.0287836 0)
(-0.109317 0.022945 0)
(-0.112836 0.0166381 0)
(-0.115245 0.00998505 0)
(-0.116502 0.00311112 0)
(-0.116582 -0.00385512 0)
(-0.11548 -0.0107821 0)
(-0.11321 -0.0175355 0)
(-0.109805 -0.0239789 0)
(-0.105318 -0.0299746 0)
(-0.0998227 -0.0353854 0)
(-0.0934125 -0.0400764 0)
(-0.0862025 -0.0439181 0)
(-0.0783282 -0.0467899 0)
(-0.069945 -0.0485841 0)
(-0.0612272 -0.0492113 0)
(-0.0523658 -0.0486057 0)
(-0.0435652 -0.0467311 0)
(-0.0350396 -0.0435873 0)
(-0.0270069 -0.0392166 0)
(-0.0196815 -0.0337094 0)
(-0.0132641 -0.0272091 0)
(-0.00792738 -0.0199158 0)
(-0.00379135 -0.0120857 0)
(-0.000904334 -0.00402583 0)
(-0.00104573 0.00527924 0)
(-0.00434191 0.0153635 0)
(-0.00899351 0.0247698 0)
(-0.0149208 0.0332372 0)
(-0.0219726 0.04056 0)
(-0.0299495 0.0465899 0)
(-0.0386306 0.0512328 0)
(-0.0477881 0.054443 0)
(-0.0571962 0.0562167 0)
(-0.0666377 0.0565852 0)
(-0.075908 0.0556077 0)
(-0.0848176 0.0533658 0)
(-0.0931941 0.0499578 0)
(-0.100883 0.0454946 0)
(-0.107749 0.0400965 0)
(-0.113675 0.0338905 0)
(-0.118563 0.0270089 0)
(-0.122332 0.019588 0)
(-0.124922 0.0117679 0)
(-0.126288 0.00369196 0)
(-0.126407 -0.00449282 0)
(-0.125271 -0.012636 0)
(-0.122893 -0.0205839 0)
(-0.119303 -0.0281799 0)
(-0.114554 -0.0352654 0)
(-0.108719 -0.0416816 0)
(-0.10189 -0.0472718 0)
(-0.0941848 -0.0518839 0)
(-0.0857413 -0.0553752 0)
(-0.0767206 -0.0576166 0)
(-0.0673052 -0.0584985 0)
(-0.0576976 -0.0579368 0)
(-0.0481175 -0.0558801 0)
(-0.0387982 -0.0523161 0)
(-0.0299804 -0.0472793 0)
(-0.0219045 -0.0408562 0)
(-0.0147993 -0.0331911 0)
(-0.00886586 -0.0244882 0)
(-0.00424916 -0.0150108 0)
(-0.0010148 -0.00507493 0)
(-0.00115241 0.00645395 0)
(-0.00477893 0.018587 0)
(-0.00988248 0.0297441 0)
(-0.0163666 0.0396687 0)
(-0.0240568 0.0481618 0)
(-0.0327277 0.0550843 0)
(-0.0421335 0.060353 0)
(-0.0520235 0.063936 0)
(-0.0621526 0.0658448 0)
(-0.0722876 0.0661275 0)
(-0.0822117 0.0648615 0)
(-0.0917262 0.0621471 0)
(-0.100653 0.0581016 0)
(-0.108833 0.0528552 0)
(-0.116128 0.0465472 0)
(-0.122421 0.0393233 0)
(-0.127612 0.0313339 0)
(-0.131622 0.0227336 0)
(-0.134388 0.01368 0)
(-0.135868 0.00433446 0)
(-0.136035 -0.00513799 0)
(-0.13488 -0.0145685 0)
(-0.132415 -0.023784 0)
(-0.128667 -0.0326079 0)
(-0.123686 -0.0408605 0)
(-0.117542 -0.0483608 0)
(-0.110327 -0.0549288 0)
(-0.102156 -0.0603886 0)
(-0.0931711 -0.0645729 0)
(-0.0835357 -0.0673282 0)
(-0.0734398 -0.0685213 0)
(-0.0630966 -0.068046 0)
(-0.0527412 -0.065831 0)
(-0.042626 -0.061848 0)
(-0.0330155 -0.0561186 0)
(-0.0241778 -0.0487218 0)
(-0.0163716 -0.0397988 0)
(-0.00982806 -0.0295559 0)
(-0.00471887 -0.0182626 0)
(-0.00112815 -0.00624472 0)
(-0.00126018 0.00774021 0)
(-0.00521999 0.022108 0)
(-0.0107784 0.0351644 0)
(-0.0178212 0.0466579 0)
(-0.0261497 0.0563987 0)
(-0.0355118 0.0642599 0)
(-0.0456356 0.070174 0)
(-0.056247 0.0741267 0)
(-0.0670813 0.0761494 0)
(-0.0778899 0.0763113 0)
(-0.0884441 0.0747116 0)
(-0.0985374 0.0714724 0)
(-0.107986 0.0667329 0)
(-0.116629 0.0606445 0)
(-0.124328 0.0533668 0)
(-0.130965 0.0450649 0)
(-0.136441 0.035908 0)
(-0.140679 0.0260685 0)
(-0.143617 0.0157215 0)
(-0.145212 0.00504564 0)
(-0.145436 -0.00577688 0)
(-0.14428 -0.0165593 0)
(-0.141751 -0.0271102 0)
(-0.137874 -0.0372331 0)
(-0.132695 -0.0467274 0)
(-0.126279 -0.0553893 0)
(-0.118715 -0.0630147 0)
(-0.110117 -0.0694019 0)
(-0.100624 -0.0743568 0)
(-0.0904022 -0.0776985 0)
(-0.0796479 -0.079266 0)
(-0.068584 -0.0789267 0)
(-0.0574597 -0.0765848 0)
(-0.0465474 -0.07219 0)
(-0.0361361 -0.0657466 0)
(-0.0265228 -0.0573212 0)
(-0.0179982 -0.0470482 0)
(-0.0108261 -0.0351332 0)
(-0.00520713 -0.0218514 0)
(-0.00124606 -0.00753941 0)
(-0.00137016 0.00913961 0)
(-0.00566941 0.0259294 0)
(-0.0116889 0.0410335 0)
(-0.0192953 0.0542063 0)
(-0.0282639 0.0652692 0)
(-0.0383146 0.0741115 0)
(-0.0491482 0.0806856 0)
(-0.0604671 0.0849999 0)
(-0.0719866 0.0871105 0)
(-0.0834432 0.0871123 0)
(-0.0945972 0.0851303 0)
(-0.105236 0.0813122 0)
(-0.115171 0.0758219 0)
(-0.124242 0.0688338 0)
(-0.132311 0.0605293 0)
(-0.139262 0.0510939 0)
(-0.145 0.0407155 0)
(-0.149449 0.0295841 0)
(-0.152549 0.0178916 0)
(-0.154259 0.00583268 0)
(-0.154549 -0.00639413 0)
(-0.153409 -0.0185856 0)
(-0.150843 -0.0305327 0)
(-0.146871 -0.0420201 0)
(-0.141534 -0.0528266 0)
(-0.13489 -0.0627256 0)
(-0.127024 -0.071488 0)
(-0.118044 -0.0788848 0)
(-0.108085 -0.0846925 0)
(-0.0973156 -0.0886992 0)
(-0.0859336 -0.0907124 0)
(-0.0741706 -0.0905676 0)
(-0.0622895 -0.0881386 0)
(-0.050582 -0.0833478 0)
(-0.0393626 -0.0761761 0)
(-0.0289587 -0.066672 0)
(-0.0196951 -0.054959 0)
(-0.0118714 -0.0412389 0)
(-0.00572032 -0.0257914 0)
(-0.0013702 -0.008965 0)
(-0.00148344 0.0106549 0)
(-0.00613132 0.0300568 0)
(-0.0126213 0.0473571 0)
(-0.0207985 0.062317 0)
(-0.0304102 0.0747723 0)
(-0.0411462 0.0846324 0)
(-0.0526791 0.0918747 0)
(-0.0646867 0.0965359 0)
(-0.0768649 0.0987021 0)
(-0.0889355 0.098499 0)
(-0.10065 0.0960822 0)
(-0.111789 0.0916288 0)
(-0.122165 0.0853301 0)
(-0.131618 0.0773861 0)
(-0.140013 0.0680014 0)
(-0.147239 0.0573823 0)
(-0.153207 0.0457355 0)
(-0.157842 0.0332678 0)
(-0.161091 0.020187 0)
(-0.162912 0.00670248 0)
(-0.163276 -0.00697278 0)
(-0.162172 -0.0206205 0)
(-0.159598 -0.0340159 0)
(-0.155571 -0.0469259 0)
(-0.150123 -0.0591095 0)
(-0.143305 -0.0703178 0)
(-0.135193 -0.0802959 0)
(-0.125888 -0.0887862 0)
(-0.11552 -0.0955333 0)
(-0.104252 -0.100291 0)
(-0.0922848 -0.10283 0)
(-0.0798548 -0.102948 0)
(-0.0672373 -0.100484 0)
(-0.0547427 -0.0953237 0)
(-0.042711 -0.0874186 0)
(-0.0315018 -0.0767931 0)
(-0.021477 -0.0635539 0)
(-0.0129749 -0.0478956 0)
(-0.00626451 -0.0301003 0)
(-0.00150214 -0.0105292 0)
(-0.00160109 0.0122898 0)
(-0.00660983 0.0344975 0)
(-0.0135826 0.0541425 0)
(-0.0223399 0.0709945 0)
(-0.032598 0.0849068 0)
(-0.0440143 0.095814 0)
(-0.0562316 0.103724 0)
(-0.0689025 0.108709 0)
(-0.0817036 0.11089 0)
(-0.0943433 0.11043 0)
(-0.106565 0.107521 0)
(-0.118148 0.102373 0)
(-0.128905 0.0952078 0)
(-0.13868 0.0862537 0)
(-0.147344 0.0757396 0)
(-0.154795 0.0638932 0)
(-0.160948 0.0509397 0)
(-0.165738 0.0371019 0)
(-0.169113 0.0226015 0)
(-0.171037 0.00766096 0)
(-0.171482 -0.00749435 0)
(-0.170432 -0.0226335 0)
(-0.167884 -0.0375179 0)
(-0.163847 -0.0518987 0)
(-0.158344 -0.0655167 0)
(-0.151417 -0.0781011 0)
(-0.14313 -0.0893713 0)
(-0.133572 -0.09904 0)
(-0.122865 -0.106817 0)
(-0.111166 -0.112419 0)
(-0.0986709 -0.115574 0)
(-0.0856201 -0.116038 0)
(-0.0722984 -0.113602 0)
(-0.0590335 -0.108113 0)
(-0.0461915 -0.0994825 0)
(-0.0341651 -0.0877028 0)
(-0.0233562 -0.0728576 0)
(-0.0141461 -0.055129 0)
(-0.00684542 -0.0347989 0)
(-0.0016434 -0.0122412 0)
(-0.00172425 0.0140494 0)
(-0.00710916 0.0392613 0)
(-0.0145799 0.0613995 0)
(-0.0239282 0.080244 0)
(-0.0348355 0.0956702 0)
(-0.0469238 0.107644 0)
(-0.0598044 0.116211 0)
(-0.0731039 0.121484 0)
(-0.0864803 0.123629 0)
(-0.09963 0.122853 0)
(-0.112291 0.119387 0)
(-0.124243 0.113481 0)
(-0.135303 0.105391 0)
(-0.145323 0.095375 0)
(-0.154184 0.083688 0)
(-0.161792 0.070579 0)
(-0.168075 0.0562909 0)
(-0.172974 0.0410615 0)
(-0.176447 0.0251243 0)
(-0.17846 0.00871242 0)
(-0.178988 -0.00793917 0)
(-0.178013 -0.0245897 0)
(-0.175527 -0.0409894 0)
(-0.171532 -0.0568766 0)
(-0.166041 -0.0719756 0)
(-0.159082 -0.0859952 0)
(-0.150705 -0.0986297 0)
(-0.140985 -0.109561 0)
(-0.13003 -0.118463 0)
(-0.117985 -0.12501 0)
(-0.105039 -0.128883 0)
(-0.0914318 -0.129787 0)
(-0.077454 -0.127462 0)
(-0.0634489 -0.121702 0)
(-0.0498074 -0.11237 0)
(-0.0369572 -0.0994169 0)
(-0.0253428 -0.0828948 0)
(-0.0153939 -0.0629669 0)
(-0.00746842 -0.0399107 0)
(-0.00179541 -0.014112 0)
(-0.00185417 0.0159396 0)
(-0.00763392 0.0443598 0)
(-0.0156207 0.069139 0)
(-0.0255721 0.0900706 0)
(-0.0371299 0.107058 0)
(-0.049877 0.120104 0)
(-0.0633911 0.129302 0)
(-0.0772726 0.134815 0)
(-0.0911612 0.136861 0)
(-0.104744 0.135697 0)
(-0.117757 0.131603 0)
(-0.129982 0.124872 0)
(-0.141247 0.115798 0)
(-0.151414 0.104672 0)
(-0.160379 0.0917751 0)
(-0.168061 0.0773781 0)
(-0.174401 0.0617407 0)
(-0.179353 0.0451132 0)
(-0.182883 0.0277391 0)
(-0.184963 0.0098586 0)
(-0.185572 -0.00828674 0)
(-0.184692 -0.0264499 0)
(-0.182308 -0.0443736 0)
(-0.178414 -0.0617864 0)
(-0.173011 -0.0783989 0)
(-0.166111 -0.0939021 0)
(-0.157748 -0.107966 0)
(-0.147977 -0.120242 0)
(-0.136886 -0.130366 0)
(-0.124605 -0.137966 0)
(-0.11131 -0.142672 0)
(-0.0972338 -0.144129 0)
(-0.0826689 -0.142015 0)
(-0.0679708 -0.136063 0)
(-0.0535539 -0.126074 0)
(-0.0398816 -0.111946 0)
(-0.0274445 -0.0936891 0)
(-0.0167258 -0.0714384 0)
(-0.00813857 -0.0454617 0)
(-0.0019596 -0.0161536 0)
(-0.00199228 0.0179679 0)
(-0.00818936 0.0498068 0)
(-0.0167132 0.0773736 0)
(-0.0272805 0.100479 0)
(-0.0394873 0.11906 0)
(-0.0528734 0.133169 0)
(-0.06698 0.142954 0)
(-0.0813811 0.148641 0)
(-0.0956999 0.150508 0)
(-0.109617 0.148873 0)
(-0.122869 0.144071 0)
(-0.135249 0.136444 0)
(-0.146595 0.126327 0)
(-0.156787 0.114047 0)
(-0.16574 0.0999119 0)
(-0.173391 0.0842137 0)
(-0.179697 0.0672274 0)
(-0.184629 0.0492135 0)
(-0.188164 0.0304222 0)
(-0.190281 0.0110977 0)
(-0.190965 -0.00851644 0)
(-0.190196 -0.0281709 0)
(-0.187957 -0.0476053 0)
(-0.18423 -0.0665425 0)
(-0.179003 -0.0846835 0)
(-0.17227 -0.101704 0)
(-0.164043 -0.117253 0)
(-0.154354 -0.13095 0)
(-0.143267 -0.142393 0)
(-0.130888 -0.151162 0)
(-0.117374 -0.156826 0)
(-0.102945 -0.158967 0)
(-0.0878878 -0.15719 0)
(-0.0725664 -0.151149 0)
(-0.0574162 -0.140573 0)
(-0.042936 -0.125293 0)
(-0.0296657 -0.10526 0)
(-0.0181483 -0.0805728 0)
(-0.00886064 -0.0514792 0)
(-0.00213733 -0.0183798 0)
(-0.00214029 0.0201432 0)
(-0.00878172 0.0556187 0)
(-0.0178669 0.0861172 0)
(-0.0290633 0.111472 0)
(-0.0419137 0.131664 0)
(-0.0559093 0.146804 0)
(-0.0705528 0.157111 0)
(-0.0853915 0.162883 0)
(-0.100035 0.164473 0)
(-0.11416 0.162269 0)
(-0.127512 0.156669 0)
(-0.139895 0.14807 0)
(-0.151171 0.136852 0)
(-0.161239 0.12338 0)
(-0.170039 0.107988 0)
(-0.17753 0.0909904 0)
(-0.183692 0.0726738 0)
(-0.188513 0.0533067 0)
(-0.191985 0.0331418 0)
(-0.194099 0.012423 0)
(-0.194844 -0.00860842 0)
(-0.194202 -0.0297061 0)
(-0.192151 -0.0506116 0)
(-0.188664 -0.071047 0)
(-0.183711 -0.0907087 0)
(-0.177269 -0.109261 0)
(-0.169322 -0.126335 0)
(-0.159874 -0.141522 0)
(-0.14896 -0.15438 0)
(-0.136654 -0.164436 0)
(-0.123086 -0.1712 0)
(-0.108453 -0.174176 0)
(-0.0930313 -0.172884 0)
(-0.0771855 -0.166889 0)
(-0.0613675 -0.155829 0)
(-0.0461107 -0.139447 0)
(-0.0320072 -0.117622 0)
(-0.0196663 -0.0903973 0)
(-0.0096391 -0.057992 0)
(-0.00232997 -0.0208053 0)
(-0.00230032 0.0224764 0)
(-0.00941856 0.0618146 0)
(-0.0190932 0.0953848 0)
(-0.0309315 0.12305 0)
(-0.0444138 0.144846 0)
(-0.058977 0.16096 0)
(-0.0740828 0.171695 0)
(-0.0892527 0.177439 0)
(-0.104085 0.178633 0)
(-0.118261 0.175745 0)
(-0.131538 0.169246 0)
(-0.143743 0.159593 0)
(-0.154762 0.147219 0)
(-0.164526 0.132523 0)
(-0.173002 0.115871 0)
(-0.180179 0.0975924 0)
(-0.186062 0.077986 0)
(-0.190662 0.0573233 0)
(-0.193989 0.0358558 0)
(-0.196047 0.0138219 0)
(-0.196832 -0.00854474 0)
(-0.196329 -0.0310064 0)
(-0.194511 -0.0533123 0)
(-0.191341 -0.0751899 0)
(-0.186773 -0.0963366 0)
(-0.18076 -0.116412 0)
(-0.173259 -0.135031 0)
(-0.16424 -0.151761 0)
(-0.153699 -0.166123 0)
(-0.141673 -0.177591 0)
(-0.128254 -0.185606 0)
(-0.113609 -0.189588 0)
(-0.0979905 -0.188961 0)
(-0.0817552 -0.183181 0)
(-0.0653656 -0.171776 0)
(-0.0493869 -0.154381 0)
(-0.034465 -0.130778 0)
(-0.0212831 -0.100936 0)
(-0.0104781 -0.0650292 0)
(-0.00253885 -0.0234466 0)
(-0.00247493 0.0249807 0)
(-0.0101092 0.0684171 0)
(-0.0204054 0.105192 0)
(-0.0328971 0.135209 0)
(-0.0469911 0.158576 0)
(-0.0620634 0.175573 0)
(-0.0775323 0.186608 0)
(-0.0928958 0.192178 0)
(-0.107747 0.19283 0)
(-0.121777 0.189124 0)
(-0.134765 0.181615 0)
(-0.146569 0.170825 0)
(-0.157109 0.157242 0)
(-0.166353 0.141303 0)
(-0.174304 0.123401 0)
(-0.180986 0.103882 0)
(-0.186433 0.0830506 0)
(-0.190682 0.0611787 0)
(-0.193764 0.0385107 0)
(-0.195699 0.0152742 0)
(-0.196494 -0.00831084 0)
(-0.196136 -0.0320214 0)
(-0.194595 -0.0556211 0)
(-0.191824 -0.0788498 0)
(-0.187761 -0.101412 0)
(-0.182333 -0.12297 0)
(-0.175465 -0.143129 0)
(-0.167089 -0.161438 0)
(-0.157158 -0.177382 0)
(-0.14566 -0.190382 0)
(-0.13264 -0.199809 0)
(-0.11822 -0.20499 0)
(-0.10262 -0.205238 0)
(-0.0861753 -0.199884 0)
(-0.0693492 -0.18832 0)
(-0.0527337 -0.170045 0)
(-0.0370292 -0.144719 0)
(-0.0229995 -0.112207 0)
(-0.0113812 -0.0726196 0)
(-0.00276526 -0.0263209 0)
(-0.00266733 0.0276725 0)
(-0.0108648 0.0754525 0)
(-0.0218192 0.115556 0)
(-0.034973 0.14794 0)
(-0.0496461 0.172806 0)
(-0.0651462 0.190553 0)
(-0.0808476 0.20172 0)
(-0.0962285 0.206936 0)
(-0.110885 0.20687 0)
(-0.124527 0.202193 0)
(-0.136967 0.19355 0)
(-0.148104 0.181538 0)
(-0.157902 0.166699 0)
(-0.166374 0.149511 0)
(-0.173566 0.130391 0)
(-0.179541 0.109696 0)
(-0.184369 0.0877348 0)
(-0.188117 0.064772 0)
(-0.190838 0.0410404 0)
(-0.192572 0.0167506 0)
(-0.193336 -0.00789728 0)
(-0.193123 -0.0327018 0)
(-0.191901 -0.0574483 0)
(-0.189614 -0.0818961 0)
(-0.186182 -0.105766 0)
(-0.181507 -0.128728 0)
(-0.175481 -0.15039 0)
(-0.167991 -0.170285 0)
(-0.158941 -0.18787 0)
(-0.148262 -0.202517 0)
(-0.135941 -0.213521 0)
(-0.12204 -0.220112 0)
(-0.10673 -0.221479 0)
(-0.0903099 -0.216807 0)
(-0.0732317 -0.205323 0)
(-0.0561044 -0.186358 0)
(-0.0396812 -0.159414 0)
(-0.024813 -0.12422 0)
(-0.0123511 -0.0807902 0)
(-0.00301037 -0.0294472 0)
(-0.00288137 0.0305717 0)
(-0.0116989 0.0829519 0)
(-0.0233524 0.126492 0)
(-0.0371712 0.161223 0)
(-0.0523728 0.18747 0)
(-0.0681893 0.205782 0)
(-0.0839516 0.216864 0)
(-0.0991255 0.221502 0)
(-0.11332 0.220512 0)
(-0.126279 0.214689 0)
(-0.13786 0.204781 0)
(-0.148016 0.191463 0)
(-0.156765 0.175334 0)
(-0.164175 0.156909 0)
(-0.170341 0.136626 0)
(-0.175372 0.114849 0)
(-0.179376 0.0918849 0)
(-0.182452 0.0679855 0)
(-0.184681 0.0433652 0)
(-0.186122 0.0182116 0)
(-0.186804 -0.00730164 0)
(-0.186729 -0.0330018 0)
(-0.185863 -0.0587031 0)
(-0.184143 -0.0841929 0)
(-0.181473 -0.109216 0)
(-0.177731 -0.133462 0)
(-0.17277 -0.156547 0)
(-0.166436 -0.178001 0)
(-0.158573 -0.197259 0)
(-0.14905 -0.213649 0)
(-0.137781 -0.226395 0)
(-0.124754 -0.234622 0)
(-0.110071 -0.237384 0)
(-0.0939773 -0.233697 0)
(-0.0768925 -0.222594 0)
(-0.0594303 -0.2032 0)
(-0.0423904 -0.174808 0)
(-0.0267156 -0.13697 0)
(-0.0133892 -0.089565 0)
(-0.00327507 -0.0328453 0)
(-0.00312157 0.0337031 0)
(-0.0126272 0.0909508 0)
(-0.0250238 0.138014 0)
(-0.0395003 0.175026 0)
(-0.0551534 0.202474 0)
(-0.0711336 0.221105 0)
(-0.0867323 0.231824 0)
(-0.101414 0.235614 0)
(-0.114817 0.233459 0)
(-0.126735 0.226297 0)
(-0.137089 0.214987 0)
(-0.145897 0.200286 0)
(-0.153247 0.182848 0)
(-0.159267 0.163223 0)
(-0.164111 0.141861 0)
(-0.167935 0.119132 0)
(-0.170889 0.0953283 0)
(-0.173108 0.0706852 0)
(-0.174699 0.045392 0)
(-0.175743 0.0196066 0)
(-0.176283 -0.00653056 0)
(-0.176329 -0.0328821 0)
(-0.175851 -0.0592986 0)
(-0.174778 -0.0856034 0)
(-0.173001 -0.111576 0)
(-0.170374 -0.136933 0)
(-0.166717 -0.161312 0)
(-0.161828 -0.184252 0)
(-0.155493 -0.205177 0)
(-0.147505 -0.22338 0)
(-0.137697 -0.238019 0)
(-0.125966 -0.248116 0)
(-0.112324 -0.252577 0)
(-0.096935 -0.25023 0)
(-0.0801655 -0.239879 0)
(-0.0626117 -0.220395 0)
(-0.0451081 -0.19081 0)
(-0.0286913 -0.150435 0)
(-0.0144939 -0.0989627 0)
(-0.00355969 -0.0365363 0)
(-0.00339301 0.0370971 0)
(-0.0136666 0.0994898 0)
(-0.0268505 0.150128 0)
(-0.0419593 0.189291 0)
(-0.0579485 0.217686 0)
(-0.0738831 0.236309 0)
(-0.0890242 0.246323 0)
(-0.102853 0.248941 0)
(-0.115059 0.245348 0)
(-0.125508 0.236639 0)
(-0.134203 0.223791 0)
(-0.141246 0.207645 0)
(-0.146803 0.188905 0)
(-0.151073 0.168146 0)
(-0.154271 0.145829 0)
(-0.156607 0.122314 0)
(-0.158273 0.0978752 0)
(-0.159437 0.0727232 0)
(-0.160237 0.0470152 0)
(-0.160771 0.0208731 0)
(-0.1611 -0.00560171 0)
(-0.161244 -0.0323134 0)
(-0.161175 -0.0591561 0)
(-0.160821 -0.0859968 0)
(-0.160062 -0.112658 0)
(-0.158732 -0.138896 0)
(-0.156621 -0.164383 0)
(-0.153479 -0.188679 0)
(-0.149034 -0.211212 0)
(-0.143002 -0.231257 0)
(-0.135118 -0.247914 0)
(-0.125176 -0.260109 0)
(-0.113071 -0.266595 0)
(-0.0988599 -0.265992 0)
(-0.0828211 -0.256841 0)
(-0.0655044 -0.237702 0)
(-0.0477589 -0.207278 0)
(-0.0307106 -0.164566 0)
(-0.0156588 -0.108993 0)
(-0.00386342 -0.0405421 0)
(-0.00370091 0.0407909 0)
(-0.0148337 0.108612 0)
(-0.0288434 0.16283 0)
(-0.0445279 0.203931 0)
(-0.0606805 0.232917 0)
(-0.0762822 0.251114 0)
(-0.0905818 0.260001 0)
(-0.103104 0.261072 0)
(-0.11362 0.255738 0)
(-0.122093 0.245269 0)
(-0.128633 0.230761 0)
(-0.133441 0.213132 0)
(-0.136773 0.193131 0)
(-0.138908 0.171348 0)
(-0.140122 0.14824 0)
(-0.14068 0.124149 0)
(-0.140814 0.0993243 0)
(-0.140725 0.0739409 0)
(-0.140576 0.0481185 0)
(-0.140486 0.0219374 0)
(-0.140531 -0.00454535 0)
(-0.140739 -0.0312808 0)
(-0.141091 -0.0582119 0)
(-0.141515 -0.0852567 0)
(-0.141885 -0.112289 0)
(-0.142022 -0.139117 0)
(-0.14169 -0.165457 0)
(-0.140601 -0.190911 0)
(-0.138422 -0.214928 0)
(-0.134793 -0.236782 0)
(-0.129347 -0.255539 0)
(-0.121755 -0.270035 0)
(-0.111775 -0.278879 0)
(-0.0993204 -0.280466 0)
(-0.0845411 -0.273039 0)
(-0.0678994 -0.25479 0)
(-0.050226 -0.224009 0)
(-0.0327224 -0.179274 0)
(-0.0168686 -0.119653 0)
(-0.00418336 -0.044885 0)
(-0.0040496 0.0448289 0)
(-0.0161403 0.118363 0)
(-0.0309963 0.176091 0)
(-0.0471481 0.218801 0)
(-0.0632069 0.247901 0)
(-0.0780813 0.265142 0)
(-0.0910388 0.272399 0)
(-0.101687 0.271497 0)
(-0.109917 0.264103 0)
(-0.115825 0.251666 0)
(-0.119651 0.235403 0)
(-0.121712 0.216297 0)
(-0.122363 0.195125 0)
(-0.121964 0.172477 0)
(-0.120857 0.148794 0)
(-0.119351 0.124388 0)
(-0.117719 0.0994706 0)
(-0.116189 0.0741761 0)
(-0.114943 0.04858 0)
(-0.114119 0.0227166 0)
(-0.113804 -0.00340519 0)
(-0.114038 -0.0297867 0)
(-0.114809 -0.0564239 0)
(-0.116052 -0.0832906 0)
(-0.117641 -0.110319 0)
(-0.119391 -0.137379 0)
(-0.121049 -0.164248 0)
(-0.122299 -0.190582 0)
(-0.122758 -0.215876 0)
(-0.121992 -0.239428 0)
(-0.119533 -0.260293 0)
(-0.114916 -0.277247 0)
(-0.10774 -0.288762 0)
(-0.0977373 -0.293012 0)
(-0.0848816 -0.28791 0)
(-0.0694915 -0.271217 0)
(-0.0523286 -0.240708 0)
(-0.0346397 -0.194418 0)
(-0.0180928 -0.130919 0)
(-0.00451265 -0.0495865 0)
(-0.0044405 0.0492635 0)
(-0.0175858 0.128776 0)
(-0.0332688 0.189839 0)
(-0.049693 0.23368 0)
(-0.0652758 0.262261 0)
(-0.0788819 0.27789 0)
(-0.0898476 0.28293 0)
(-0.0979197 0.279591 0)
(-0.103157 0.269816 0)
(-0.105829 0.255237 0)
(-0.106328 0.237174 0)
(-0.105103 0.216657 0)
(-0.102612 0.194468 0)
(-0.0992931 0.17118 0)
(-0.0955454 0.147197 0)
(-0.0917199 0.122787 0)
(-0.0881161 0.0981174 0)
(-0.0849817 0.0732723 0)
(-0.0825133 0.0482788 0)
(-0.0808581 0.0231223 0)
(-0.0801144 -0.00223802 0)
(-0.0803314 -0.0278548 0)
(-0.0815071 -0.0537786 0)
(-0.0835853 -0.0800416 0)
(-0.08645 -0.10664 0)
(-0.0899196 -0.133511 0)
(-0.0937396 -0.160506 0)
(-0.0975766 -0.187354 0)
(-0.101014 -0.21362 0)
(-0.103557 -0.238656 0)
(-0.104643 -0.26154 0)
(-0.103671 -0.281022 0)
(-0.100061 -0.295474 0)
(-0.0933311 -0.302855 0)
(-0.0832201 -0.300739 0)
(-0.0698319 -0.286391 0)
(-0.0537849 -0.256962 0)
(-0.0363164 -0.209781 0)
(-0.0192736 -0.142732 0)
(-0.0048374 -0.0546653 0)
(-0.00486799 0.0541533 0)