/*--------------------------------*- C++ -*----------------------------------*\
| =========                 |                                                 |
| \\      /  F ield         | OpenFOAM: The Open Source CFD Toolbox           |
|  \\    /   O peration     | Version:  4.1                                   |
|   \\  /    A nd           | Web:      www.OpenFOAM.org                      |
|    \\/     M anipulation  |                                                 |
\*---------------------------------------------------------------------------*/
FoamFile
{
    version     2.0;
    format      ascii;
    class       volVectorField;
    location    "0.0827674";
    object      U;
}
// * * * * * * * * * * * * * * * * * * * * * * * * * * * * * * * * * * * * * //

dimensions      [0 1 -1 0 0 0 0];

internalField   nonuniform List<vector> 
441
(
(0.000823073 -0.000794256 0)
(0.000187015 9.717e-05 0)
(-0.00444297 0.00093264 0)
(-0.0119304 0.00161274 0)
(-0.0215531 0.00195091 0)
(-0.0319378 0.00206357 0)
(-0.0422178 0.00196082 0)
(-0.051441 0.00170154 0)
(-0.0589151 0.0012999 0)
(-0.0639903 0.000782263 0)
(-0.0661959 0.000171032 0)
(-0.0652065 -0.000495026 0)
(-0.0609598 -0.00115914 0)
(-0.0536649 -0.0017504 0)
(-0.0439304 -0.00217614 0)
(-0.0326487 -0.00236136 0)
(-0.0211627 -0.00221091 0)
(-0.0107788 -0.00173089 0)
(-0.00315834 -0.000867743 0)
(0.000963426 7.81093e-05 0)
(0.000969477 0.000925123 0)
(4.52176e-06 -0.000243259 0)
(-0.00581653 0.00581833 0)
(-0.020125 0.01194 0)
(-0.0402737 0.0167266 0)
(-0.0647375 0.0193346 0)
(-0.0906689 0.0199766 0)
(-0.116019 0.0187998 0)
(-0.138602 0.0160907 0)
(-0.156723 0.0120631 0)
(-0.168865 0.00697391 0)
(-0.173941 0.00112202 0)
(-0.171272 -0.00509016 0)
(-0.16079 -0.0111423 0)
(-0.143072 -0.0164157 0)
(-0.119543 -0.0202224 0)
(-0.0922663 -0.0219509 0)
(-0.0641687 -0.0210879 0)
(-0.0381393 -0.0175812 0)
(-0.017626 -0.0116185 0)
(-0.00421099 -0.00475019 0)
(0.000309514 0.00104495 0)
(-0.000898333 0.00438035 0)
(-0.012861 0.0202674 0)
(-0.037042 0.0349044 0)
(-0.0688591 0.0458999 0)
(-0.106136 0.0518175 0)
(-0.144957 0.0528836 0)
(-0.182483 0.0494238 0)
(-0.215684 0.0420375 0)
(-0.242176 0.0312907 0)
(-0.259852 0.0178626 0)
(-0.267208 0.00256934 0)
(-0.263325 -0.0135369 0)
(-0.248125 -0.029143 0)
(-0.222411 -0.0427233 0)
(-0.188124 -0.0526386 0)
(-0.148072 -0.0574242 0)
(-0.106235 -0.0559508 0)
(-0.066577 -0.0480602 0)
(-0.0339326 -0.0343801 0)
(-0.0106718 -0.0179091 0)
(-0.00044287 -0.00245877 0)
(-0.00178005 0.01264 0)
(-0.0198605 0.042437 0)
(-0.0536793 0.0678051 0)
(-0.0964322 0.0860165 0)
(-0.145279 0.0954367 0)
(-0.195373 0.0964295 0)
(-0.243331 0.089586 0)
(-0.285538 0.0758804 0)
(-0.319163 0.0563105 0)
(-0.341694 0.0320707 0)
(-0.351325 0.00460799 0)
(-0.34692 -0.0242426 0)
(-0.328314 -0.0522199 0)
(-0.296356 -0.0767095 0)
(-0.253235 -0.0949184 0)
(-0.202193 -0.104311 0)
(-0.147983 -0.102941 0)
(-0.0954322 -0.0903706 0)
(-0.0507822 -0.067561 0)
(-0.0173607 -0.0387701 0)
(-0.00117795 -0.0093232 0)
(-0.00250921 0.0245398 0)
(-0.0262751 0.0725358 0)
(-0.0692747 0.110946 0)
(-0.122392 0.137326 0)
(-0.182077 0.150306 0)
(-0.242584 0.150613 0)
(-0.300115 0.13925 0)
(-0.350626 0.117648 0)
(-0.390988 0.0873015 0)
(-0.418396 0.0499738 0)
(-0.430786 0.00780108 0)
(-0.42677 -0.0365283 0)
(-0.405969 -0.0797071 0)
(-0.369079 -0.117888 0)
(-0.318302 -0.146922 0)
(-0.257084 -0.162928 0)
(-0.190813 -0.162835 0)
(-0.125169 -0.145597 0)
(-0.0680285 -0.11224 0)
(-0.0239657 -0.0680473 0)
(-0.00178699 -0.0196822 0)
(-0.00317047 0.0395863 0)
(-0.0322264 0.109765 0)
(-0.0838914 0.163361 0)
(-0.146794 0.198712 0)
(-0.216674 0.215199 0)
(-0.286937 0.214203 0)
(-0.353463 0.197343 0)
(-0.411905 0.166594 0)
(-0.458955 0.123989 0)
(-0.491599 0.0718539 0)
(-0.50753 0.0129885 0)
(-0.505051 -0.0490895 0)
(-0.483426 -0.110021 0)
(-0.442984 -0.164646 0)
(-0.385684 -0.20728 0)
(-0.314931 -0.232372 0)
(-0.236609 -0.235287 0)
(-0.157261 -0.213849 0)
(-0.0866798 -0.16871 0)
(-0.0310259 -0.105883 0)
(-0.00240752 -0.0333956 0)
(-0.00376999 0.0576334 0)
(-0.037767 0.153831 0)
(-0.0975745 0.224707 0)
(-0.169653 0.269819 0)
(-0.249056 0.289774 0)
(-0.328415 0.286928 0)
(-0.40339 0.263743 0)
(-0.469453 0.222837 0)
(-0.523232 0.166805 0)
(-0.561587 0.0984832 0)
(-0.581996 0.0212523 0)
(-0.582399 -0.0606401 0)
(-0.561565 -0.14185 0)
(-0.519228 -0.215886 0)
(-0.456811 -0.275356 0)
(-0.377373 -0.312661 0)
(-0.287066 -0.321024 0)
(-0.193237 -0.2964 0)
(-0.10786 -0.238413 0)
(-0.0390999 -0.153411 0)
(-0.00311611 -0.0509115 0)
(-0.00434774 0.0784601 0)
(-0.0429956 0.204243 0)
(-0.110396 0.294305 0)
(-0.19091 0.349839 0)
(-0.278943 0.373171 0)
(-0.366466 0.36798 0)
(-0.449037 0.337829 0)
(-0.522115 0.286081 0)
(-0.582405 0.215897 0)
(-0.626767 0.130532 0)
(-0.652524 0.0337893 0)
(-0.657256 -0.0695382 0)
(-0.639118 -0.173292 0)
(-0.597037 -0.269723 0)
(-0.531553 -0.349643 0)
(-0.44497 -0.403005 0)
(-0.3433 -0.420201 0)
(-0.23446 -0.394301 0)
(-0.132761 -0.322934 0)
(-0.0488554 -0.212093 0)
(-0.00403821 -0.0728928 0)
(-0.00491293 0.10191 0)
(-0.0479696 0.260564 0)
(-0.122374 0.371465 0)
(-0.210389 0.437856 0)
(-0.305796 0.464346 0)
(-0.400056 0.456306 0)
(-0.488794 0.418702 0)
(-0.567669 0.355742 0)
(-0.633662 0.271152 0)
(-0.683822 0.168472 0)
(-0.715458 0.05172 0)
(-0.725858 -0.0740435 0)
(-0.712528 -0.202132 0)
(-0.673409 -0.32375 0)
(-0.607792 -0.427957 0)
(-0.516698 -0.501941 0)
(-0.405357 -0.532518 0)
(-0.281734 -0.508548 0)
(-0.162383 -0.424248 0)
(-0.0609338 -0.283993 0)
(-0.00528857 -0.100417 0)
(-0.00551548 0.127966 0)
(-0.0528141 0.322468 0)
(-0.13357 0.45545 0)
(-0.227857 0.532678 0)
(-0.32883 0.561761 0)
(-0.427656 0.55019 0)
(-0.520233 0.504694 0)
(-0.602724 0.430438 0)
(-0.67264 0.331711 0)
(-0.727504 0.212177 0)
(-0.764837 0.0758058 0)
(-0.781832 -0.0724338 0)
(-0.775416 -0.225751 0)
(-0.742475 -0.374706 0)
(-0.680698 -0.506886 0)
(-0.589236 -0.60659 0)
(-0.471606 -0.656402 0)
(-0.334921 -0.639357 0)
(-0.197396 -0.544255 0)
(-0.075991 -0.371601 0)
(-0.0070329 -0.134979 0)
(-0.00620839 0.156452 0)
(-0.0578032 0.389318 0)
(-0.144284 0.545021 0)
(-0.243276 0.632371 0)
(-0.347282 0.66294 0)
(-0.447489 0.646829 0)
(-0.540349 0.592974 0)
(-0.622931 0.507605 0)
(-0.693614 0.395584 0)
(-0.750769 0.260527 0)
(-0.792467 0.106066 0)
(-0.816141 -0.063344 0)
(-0.818372 -0.241365 0)
(-0.795096 -0.418529 0)
(-0.742163 -0.581559 0)
(-0.656285 -0.712105 0)
(-0.538079 -0.78817 0)
(-0.392458 -0.785225 0)
(-0.237912 -0.683998 0)
(-0.0946742 -0.477357 0)
(-0.00947239 -0.178324 0)
(-0.00720062 0.188014 0)
(-0.063522 0.461392 0)
(-0.155104 0.639497 0)
(-0.256744 0.734991 0)
(-0.360247 0.76489 0)
(-0.457335 0.742489 0)
(-0.545371 0.679491 0)
(-0.622862 0.583282 0)
(-0.689434 0.459317 0)
(-0.744768 0.310987 0)
(-0.78791 0.1413 0)
(-0.817017 -0.0462667 0)
(-0.828749 -0.246484 0)
(-0.818449 -0.4507 0)
(-0.780124 -0.645775 0)
(-0.70767 -0.811494 0)
(-0.59748 -0.921567 0)
(-0.450513 -0.942358 0)
(-0.283017 -0.843377 0)
(-0.117584 -0.603898 0)
(-0.0129464 -0.233018 0)
(-0.00875369 0.222575 0)
(-0.0711572 0.537707 0)
(-0.167464 0.736542 0)
(-0.26912 0.836589 0)
(-0.367224 0.862454 0)
(-0.454964 0.831238 0)
(-0.531105 0.758041 0)
(-0.596305 0.651438 0)
(-0.651854 0.517481 0)
(-0.699246 0.359176 0)
(-0.738961 0.178664 0)
(-0.77046 -0.0219675 0)
(-0.791085 -0.23928 0)
(-0.796262 -0.466427 0)
(-0.778503 -0.691812 0)
(-0.728949 -0.894807 0)
(-0.638514 -1.04612 0)
(-0.502293 -1.10227 0)
(-0.330324 -1.01848 0)
(-0.145255 -0.751863 0)
(-0.0178962 -0.301302 0)
(-0.0116654 0.263587 0)
(-0.0825457 0.621072 0)
(-0.182856 0.836466 0)
(-0.280617 0.9343 0)
(-0.366371 0.950374 0)
(-0.436374 0.906212 0)
(-0.491373 0.820988 0)
(-0.535066 0.704301 0)
(-0.57075 0.562723 0)
(-0.602196 0.398675 0)
(-0.631676 0.213235 0)
(-0.660532 0.00678032 0)
(-0.687472 -0.219636 0)
(-0.708985 -0.461987 0)
(-0.716923 -0.711929 0)
(-0.70048 -0.950598 0)
(-0.644331 -1.14836 0)
(-0.536184 -1.25265 0)
(-0.374433 -1.2026 0)
(-0.177685 -0.921864 0)
(-0.0251419 -0.387771 0)
(-0.016934 0.31066 0)
(-0.101298 0.708255 0)
(-0.204469 0.932956 0)
(-0.29232 1.01894 0)
(-0.355386 1.01795 0)
(-0.396065 0.956207 0)
(-0.417834 0.857352 0)
(-0.428593 0.731554 0)
(-0.433831 0.585651 0)
(-0.439868 0.42127 0)
(-0.450863 0.238334 0)
(-0.470372 0.0354205 0)
(-0.499025 -0.189089 0)
(-0.535504 -0.434731 0)
(-0.572302 -0.698068 0)
(-0.598537 -0.964692 0)
(-0.592888 -1.20872 0)
(-0.535451 -1.37178 0)
(-0.406334 -1.3781 0)
(-0.214284 -1.1058 0)
(-0.0356624 -0.493498 0)
(-0.0270142 0.378007 0)
(-0.130224 0.809729 0)
(-0.230408 1.02884 0)
(-0.297115 1.08566 0)
(-0.322074 1.05591 0)
(-0.318403 0.969839 0)
(-0.29278 0.855314 0)
(-0.258374 0.721851 0)
(-0.222584 0.575807 0)
(-0.194122 0.417566 0)
(-0.178627 0.245758 0)
(-0.181716 0.0572516 0)
(-0.206052 -0.152133 0)
(-0.253445 -0.3857 0)
(-0.318592 -0.646091 0)
(-0.393625 -0.926108 0)
(-0.453306 -1.20901 0)
(-0.47279 -1.43692 0)
(-0.407532 -1.52576 0)
(-0.250271 -1.29793 0)
(-0.0511137 -0.628566 0)
(-0.0451728 0.457087 0)
(-0.176885 0.90597 0)
(-0.259289 1.09878 0)
(-0.283926 1.10829 0)
(-0.245828 1.04055 0)
(-0.177123 0.927527 0)
(-0.0873493 0.799363 0)
(0.00435223 0.663223 0)
(0.0899362 0.52385 0)
(0.159281 0.37997 0)
(0.206461 0.228915 0)
(0.224719 0.0663005 0)
(0.209996 -0.113836 0)
(0.157117 -0.317741 0)
(0.0679823 -0.553793 0)
(-0.056418 -0.823538 0)
(-0.191125 -1.12446 0)
(-0.313843 -1.40874 0)
(-0.351185 -1.59756 0)
(-0.276921 -1.4589 0)
(-0.0724966 -0.780685 0)
(-0.0738687 0.603042 0)
(-0.223613 1.02486 0)
(-0.24529 1.1461 0)
(-0.190332 1.07426 0)
(-0.0577374 0.954841 0)
(0.0952158 0.813377 0)
(0.259755 0.676881 0)
(0.412565 0.546616 0)
(0.547722 0.423532 0)
(0.655787 0.303929 0)
(0.732397 0.183727 0)
(0.771254 0.0578175 0)
(0.768272 -0.0804086 0)
(0.715825 -0.238563 0)
(0.612425 -0.428787 0)
(0.449191 -0.660783 0)
(0.244801 -0.949414 0)
(0.00486928 -1.26824 0)
(-0.174317 -1.56644 0)
(-0.256365 -1.57431 0)
(-0.0971684 -0.978586 0)
(-0.113429 0.725215 0)
(-0.252718 1.05136 0)
(-0.114985 1.06554 0)
(0.0810414 0.912565 0)
(0.347815 0.756856 0)
(0.597848 0.608845 0)
(0.835022 0.484162 0)
(1.03774 0.377046 0)
(1.20742 0.283822 0)
(1.33874 0.199025 0)
(1.43121 0.117912 0)
(1.48086 0.0357479 0)
(1.48511 -0.0530767 0)
(1.43553 -0.155183 0)
(1.32855 -0.282123 0)
(1.14511 -0.446878 0)
(0.893639 -0.675874 0)
(0.545025 -0.970379 0)
(0.200969 -1.32785 0)
(-0.130685 -1.4971 0)
(-0.105445 -1.10993 0)
(-0.0423814 1.02228 0)
(0.0572438 1.02243 0)
(0.49048 0.848093 0)
(0.850994 0.610655 0)
(1.22064 0.44622 0)
(1.5168 0.324525 0)
(1.77024 0.238297 0)
(1.97066 0.174114 0)
(2.12931 0.12405 0)
(2.24674 0.0823646 0)
(2.3266 0.0449288 0)
(2.36794 0.00849204 0)
(2.37041 -0.0302819 0)
(2.3271 -0.0754999 0)
(2.23509 -0.134619 0)
(2.07142 -0.218656 0)
(1.83664 -0.354803 0)
(1.46388 -0.567383 0)
(1.01651 -0.921443 0)
(0.371518 -1.2529 0)
(0.0358325 -1.27766 0)
(0.845254 0.576379 0)
(1.31644 0.399755 0)
(2.06246 0.261962 0)
(2.45493 0.155187 0)
(2.77672 0.0930299 0)
(2.98371 0.056761 0)
(3.1385 0.0349933 0)
(3.24662 0.021818 0)
(3.32487 0.0130597 0)
(3.37777 0.00683087 0)
(3.41025 0.00179247 0)
(3.42311 -0.00287892 0)
(3.41716 -0.00784239 0)
(3.38834 -0.0142037 0)
(3.33518 -0.0233864 0)
(3.23891 -0.039053 0)
(3.0969 -0.0680407 0)
(2.82703 -0.122194 0)
(2.45441 -0.231271 0)
(1.63343 -0.388071 0)
(0.924217 -0.587301 0)
)
;

boundaryField
{
    movingWall
    {
        type            fixedValue;
        value           uniform (4 0 0);
    }
    fixedWalls
    {
        type            noSlip;
    }
    frontAndBack
    {
        type            empty;
    }
}


// ************************************************************************* //
