/*--------------------------------*- C++ -*----------------------------------*\
| =========                 |                                                 |
| \\      /  F ield         | OpenFOAM: The Open Source CFD Toolbox           |
|  \\    /   O peration     | Version:  4.1                                   |
|   \\  /    A nd           | Web:      www.OpenFOAM.org                      |
|    \\/     M anipulation  |                                                 |
\*---------------------------------------------------------------------------*/
FoamFile
{
    version     2.0;
    format      ascii;
    class       volVectorField;
    location    "0.196";
    object      U;
}
// * * * * * * * * * * * * * * * * * * * * * * * * * * * * * * * * * * * * * //

dimensions      [0 1 -1 0 0 0 0];

internalField   nonuniform List<vector> 
100
(
(-0.00129733 0.000677665 0)
(-0.00401614 0.00106847 0)
(-0.011852 0.00148477 0)
(-0.0165922 0.00075418 0)
(-0.0217453 0.000535779 0)
(-0.0234522 -0.000845714 0)
(-0.0215607 -0.00156518 0)
(-0.0170186 -0.00311033 0)
(-0.00674363 -0.00297886 0)
(-0.00206326 -0.00219196 0)
(-0.00288681 0.00468455 0)
(-0.0110874 0.00941968 0)
(-0.0268942 0.0113854 0)
(-0.0373023 0.00892965 0)
(-0.0469665 0.00672205 0)
(-0.0500884 0.000378971 0)
(-0.0463031 -0.00454006 0)
(-0.0365921 -0.0119963 0)
(-0.0166771 -0.0118875 0)
(-0.0040781 -0.00660058 0)
(-0.00383215 0.014655 0)
(-0.0153897 0.0248673 0)
(-0.0357513 0.0279284 0)
(-0.0497432 0.0203973 0)
(-0.0629093 0.013623 0)
(-0.0682337 -0.00201787 0)
(-0.065339 -0.0148636 0)
(-0.0535903 -0.0332739 0)
(-0.0271686 -0.0356153 0)
(-0.00666742 -0.0231616 0)
(-0.00612377 0.0237073 0)
(-0.0214326 0.0410395 0)
(-0.047277 0.0458964 0)
(-0.0654991 0.0357348 0)
(-0.0829987 0.025707 0)
(-0.0925451 0.00259698 0)
(-0.0929365 -0.018521 0)
(-0.0810768 -0.0502159 0)
(-0.0467911 -0.0583385 0)
(-0.0122132 -0.0399871 0)
(-0.00722241 0.0424387 0)
(-0.0246254 0.0656923 0)
(-0.0541893 0.0724912 0)
(-0.0760542 0.0553825 0)
(-0.0992922 0.0411227 0)
(-0.115393 0.00697261 0)
(-0.123693 -0.026148 0)
(-0.115526 -0.080616 0)
(-0.0758295 -0.105132 0)
(-0.0212115 -0.0830861 0)
(-0.0139607 0.0549291 0)
(-0.0370413 0.0872826 0)
(-0.0717838 0.0974158 0)
(-0.0977341 0.0801004 0)
(-0.124642 0.0657545 0)
(-0.146451 0.0265821 0)
(-0.163076 -0.0171318 0)
(-0.159729 -0.0979799 0)
(-0.11806 -0.151639 0)
(-0.0374087 -0.136298 0)
(-0.0152336 0.0943806 0)
(-0.0369216 0.122769 0)
(-0.0701768 0.134405 0)
(-0.0928109 0.106804 0)
(-0.117519 0.0906559 0)
(-0.13609 0.0434751 0)
(-0.158215 -0.012448 0)
(-0.160671 -0.12795 0)
(-0.135345 -0.228888 0)
(-0.0510469 -0.242188 0)
(-0.0395968 0.105317 0)
(-0.0680963 0.140688 0)
(-0.0793977 0.15362 0)
(-0.0826185 0.126226 0)
(-0.0811542 0.110559 0)
(-0.0759935 0.0665891 0)
(-0.0886147 0.0103687 0)
(-0.0903676 -0.119867 0)
(-0.103042 -0.257191 0)
(-0.0518641 -0.32123 0)
(-0.036318 0.205307 0)
(-0.0239244 0.160871 0)
(0.0128411 0.152524 0)
(0.0589637 0.106552 0)
(0.0972955 0.0863649 0)
(0.146142 0.0483468 0)
(0.157169 0.00433823 0)
(0.171772 -0.115581 0)
(0.091728 -0.26603 0)
(0.0208422 -0.404294 0)
(0.146591 0.15979 0)
(0.234222 0.0886494 0)
(0.384046 0.0723767 0)
(0.463475 0.0408912 0)
(0.527181 0.0266435 0)
(0.578487 0.0073829 0)
(0.581034 -0.00806199 0)
(0.57817 -0.0481327 0)
(0.416746 -0.0923728 0)
(0.221865 -0.195447 0)
)
;

boundaryField
{
    movingWall
    {
        type            fixedValue;
        value           uniform (1 0 0);
    }
    fixedWalls
    {
        type            noSlip;
    }
    frontAndBack
    {
        type            empty;
    }
}


// ************************************************************************* //
