/*--------------------------------*- C++ -*----------------------------------*\
| =========                 |                                                 |
| \\      /  F ield         | OpenFOAM: The Open Source CFD Toolbox           |
|  \\    /   O peration     | Version:  4.1                                   |
|   \\  /    A nd           | Web:      www.OpenFOAM.org                      |
|    \\/     M anipulation  |                                                 |
\*---------------------------------------------------------------------------*/
FoamFile
{
    version     2.0;
    format      ascii;
    class       volScalarField;
    location    "0.0023";
    object      p;
}
// * * * * * * * * * * * * * * * * * * * * * * * * * * * * * * * * * * * * * //

dimensions      [1 -1 -2 0 0 0 0];

internalField   nonuniform List<scalar> 
441
(
100000
99999.9
99999.7
100000
100000
99999.6
100000
100000
100000
100001
100001
100001
100001
100001
100001
100001
100000
100001
100000
100001
100000
100000
100000
100000
100000
100000
100000
100000
100000
100000
100000
100001
100000
100000
100000
100000
100000
100000
100001
100000
100001
100000
100000
99999.9
99999.9
99999.9
100000
99999.9
100000
100000
100000
100001
100001
100001
100001
100001
100001
100001
100001
100001
100001
100001
100001
100000
99999.9
99999.9
99999.9
100000
100000
100000
100000
100000
100000
100000
100000
100001
100001
100001
100001
100001
100001
100001
100001
100001
100000
99999.4
99999.6
99999.6
99999.7
99999.7
99999.9
100000
100000
100000
100000
100001
100001
100001
100001
100001
100001
100001
100001
100001
100001
99998.5
99999.3
99999.1
99999.3
99999.4
99999.6
99999.7
99999.9
100000
100000
100000
100001
100001
100001
100001
100001
100001
100001
100001
100001
100001
99998.1
99998.5
99998.5
99998.7
99998.9
99999.1
99999.3
99999.6
99999.8
100000
100000
100001
100001
100001
100001
100002
100002
100002
100002
100002
100001
99997.9
99998.1
99998.1
99998.3
99998.4
99998.8
99999
99999.3
99999.7
100000
100000
100001
100001
100001
100002
100002
100002
100002
100002
100003
100002
99997
99997.1
99997.2
99997.5
99997.7
99998.1
99998.4
99998.9
99999.4
99999.9
100000
100001
100001
100002
100002
100003
100003
100003
100003
100004
100003
99996.4
99996.4
99996.5
99996.8
99997.1
99997.5
99998
99998.6
99999.1
99999.8
100000
100001
100002
100002
100003
100003
100003
100004
100004
100004
100003
99995
99995
99995.2
99995.6
99995.9
99996.6
99997.1
99997.9
99998.7
99999.6
100000
100001
100002
100003
100004
100004
100005
100005
100005
100006
100006
99994
99994.1
99994.3
99994.7
99995.1
99995.8
99996.5
99997.4
99998.3
99999.4
100000
100001
100003
100003
100004
100005
100006
100006
100006
100007
100006
99991.9
99992.1
99992.2
99993
99993.4
99994.5
99995.3
99996.6
99997.7
99999
100000
100002
100003
100004
100006
100006
100007
100008
100008
100009
100006
99990.7
99991
99991.1
99991.9
99992.4
99993.6
99994.5
99995.9
99997.2
99998.8
100000
100002
100004
100005
100006
100007
100009
100009
100010
100010
100009
99987.2
99987.8
99987.9
99989.3
99989.9
99991.7
99992.9
99994.8
99996.4
99998.3
100000
100002
100004
100006
100008
100009
100012
100012
100014
100013
100011
99986.1
99986.7
99986.6
99988.2
99988.7
99990.7
99992
99994.1
99995.9
99998
100000
100002
100004
100006
100009
100010
100013
100013
100015
100015
100013
99979.8
99981.6
99981.5
99984.5
99985.4
99988.5
99990.1
99992.9
99995
99997.5
100000
100002
100005
100007
100011
100012
100017
100017
100024
100019
100034
99978.9
99980.7
99980.2
99983.4
99984.3
99987.6
99989.3
99992.3
99994.6
99997.2
99999.8
100002
100005
100007
100011
100012
100017
100018
100024
100023
100032
99965.1
99972.7
99972
99978.8
99980.3
99985.3
99987.6
99991.3
99993.8
99996.8
99999.7
100002
100006
100008
100013
100014
100021
100022
100033
100033
100046
99964.3
99972.3
99971.2
99977.9
99979.5
99984.7
99987.1
99990.9
99993.6
99996.6
99999.4
100002
100005
100007
100012
100013
100020
100021
100032
100032
100048
99919.9
99961.9
99962.1
99975.2
99977.3
99983.8
99986.5
99990.6
99993.4
99996.5
99999.5
100002
100006
100008
100013
100014
100023
100025
100044
100050
100101
)
;

boundaryField
{
    movingWall
    {
        type            zeroGradient;
    }
    fixedWalls
    {
        type            zeroGradient;
    }
    frontAndBack
    {
        type            empty;
    }
}


// ************************************************************************* //
