/*--------------------------------*- C++ -*----------------------------------*\
| =========                 |                                                 |
| \\      /  F ield         | OpenFOAM: The Open Source CFD Toolbox           |
|  \\    /   O peration     | Version:  4.1                                   |
|   \\  /    A nd           | Web:      www.OpenFOAM.org                      |
|    \\/     M anipulation  |                                                 |
\*---------------------------------------------------------------------------*/
FoamFile
{
    version     2.0;
    format      ascii;
    class       volVectorField;
    location    "0.0023";
    object      U;
}
// * * * * * * * * * * * * * * * * * * * * * * * * * * * * * * * * * * * * * //

dimensions      [0 1 -1 0 0 0 0];

internalField   nonuniform List<vector> 
441
(
(0.00167625 -0.00462336 0)
(0.000960479 -0.00481772 0)
(-0.00120259 -3.87835e-165 0)
(0.00113486 -7.18073e-267 0)
(-0.0169089 -0.00455163 0)
(-0.00113486 -2.58553e-232 0)
(-1.56093e-202 -2.43012e-203 0)
(-6.06673e-204 -2.67397e-228 0)
(-1.60631e-212 -8.28684e-214 0)
(-0.00531035 8.98516e-266 0)
(-0.0542886 0.0212542 0)
(-0.0685775 0.0114588 0)
(-0.079459 0.00525447 0)
(-0.0765811 0.00106401 0)
(-0.0726596 -0.0009208 0)
(-0.062777 -0.00234175 0)
(-0.053239 -0.00283658 0)
(-0.0405114 -0.00354087 0)
(-0.028139 -0.00341403 0)
(-0.0150164 -0.00377596 0)
(-0.00168672 -0.00230735 0)
(-0.00016284 0.00227785 0)
(-0.0154226 0.00805283 0)
(-0.0378466 0.00288964 0)
(-0.0546965 0.015158 0)
(-0.0775636 0.00620193 0)
(-0.0936546 -0.0116577 0)
(-0.106959 -0.00145855 0)
(-0.119028 0.000713939 0)
(-0.127704 0.00951595 0)
(-0.139212 0.0465231 0)
(-0.143517 0.0400941 0)
(-0.135934 0.0141132 0)
(-0.133319 0.0022661 0)
(-0.122383 -0.00798296 0)
(-0.112304 -0.0128689 0)
(-0.0959645 -0.0175023 0)
(-0.0804418 -0.0191721 0)
(-0.0606897 -0.0222022 0)
(-0.0417668 -0.0217459 0)
(-0.0218291 -0.0233955 0)
(-0.0019882 -0.0141801 0)
(0.00329313 0.00955271 0)
(-0.0116758 0.0320956 0)
(-0.045485 0.0369066 0)
(-0.0709518 0.0386038 0)
(-0.0926851 0.0334487 0)
(-0.120489 0.0260952 0)
(-0.14697 0.0239419 0)
(-0.161558 0.0199652 0)
(-0.179394 0.0191589 0)
(-0.178658 0.0208822 0)
(-0.162184 0.0189988 0)
(-0.153737 0.00283093 0)
(-0.146304 -0.00784288 0)
(-0.134483 -0.0194902 0)
(-0.122482 -0.026826 0)
(-0.104187 -0.0341993 0)
(-0.0869015 -0.0374185 0)
(-0.0642834 -0.0424313 0)
(-0.0437368 -0.0414684 0)
(-0.0216292 -0.0437694 0)
(-0.000393204 -0.0253712 0)
(0.00801133 0.0110366 0)
(-0.00190142 0.0585528 0)
(-0.045937 0.0630697 0)
(-0.0768652 0.0636426 0)
(-0.105555 0.0561838 0)
(-0.132136 0.0449436 0)
(-0.154342 0.0402677 0)
(-0.171066 0.0334103 0)
(-0.182891 0.0276062 0)
(-0.186874 0.0263758 0)
(-0.180872 0.0144479 0)
(-0.171988 -0.00276915 0)
(-0.162693 -0.0174137 0)
(-0.147782 -0.0324497 0)
(-0.132941 -0.0431823 0)
(-0.111293 -0.053849 0)
(-0.0914358 -0.0587617 0)
(-0.0648694 -0.0664113 0)
(-0.0423972 -0.0639103 0)
(-0.0169432 -0.0679162 0)
(0.00317583 -0.0360056 0)
(6.6254e-165 0.00200283 0)
(-0.00364633 0.0856135 0)
(-0.0559905 0.111237 0)
(-0.0864089 0.0972947 0)
(-0.118475 0.0882697 0)
(-0.145593 0.073756 0)
(-0.169942 0.0624047 0)
(-0.186806 0.0482711 0)
(-0.199519 0.0348359 0)
(-0.202689 0.0200234 0)
(-0.197563 0.00450771 0)
(-0.189408 -0.0146772 0)
(-0.178413 -0.0315905 0)
(-0.161845 -0.0490448 0)
(-0.144826 -0.062679 0)
(-0.119805 -0.0758773 0)
(-0.0978786 -0.0829023 0)
(-0.0656043 -0.0919361 0)
(-0.0414695 -0.0881567 0)
(-0.0085046 -0.0898467 0)
(0.0106496 -0.0380477 0)
(-8.55305e-266 0.00646552 0)
(-0.0632615 0.119148 0)
(-0.0749008 0.144234 0)
(-0.10984 0.127727 0)
(-0.133616 0.115524 0)
(-0.161695 0.0974166 0)
(-0.18332 0.0819195 0)
(-0.201712 0.063119 0)
(-0.213566 0.0438024 0)
(-0.219257 0.0235717 0)
(-0.217693 0.000976494 0)
(-0.210203 -0.0226557 0)
(-0.198728 -0.0451493 0)
(-0.180043 -0.0668509 0)
(-0.160398 -0.0851091 0)
(-0.131334 -0.102006 0)
(-0.105744 -0.112337 0)
(-0.0662447 -0.124781 0)
(-0.0373514 -0.119725 0)
(0.0113551 -0.122816 0)
(0.0197647 -0.0335447 0)
(-0.0258621 0.0723451 0)
(-0.0760319 0.155172 0)
(-0.093724 0.160031 0)
(-0.124803 0.154145 0)
(-0.151704 0.140415 0)
(-0.180207 0.122518 0)
(-0.203951 0.102372 0)
(-0.22337 0.0781797 0)
(-0.236496 0.0524476 0)
(-0.242901 0.0243331 0)
(-0.242088 -0.00426164 0)
(-0.234728 -0.0334593 0)
(-0.222283 -0.0612912 0)
(-0.201767 -0.0874063 0)
(-0.179951 -0.110597 0)
(-0.146631 -0.130926 0)
(-0.119175 -0.146612 0)
(-0.0710042 -0.161279 0)
(-0.0451057 -0.163579 0)
(0.0253043 -0.148435 0)
(6.13962e-266 -0.00494116 0)
(-0.0195874 0.11119 0)
(-0.0618134 0.18773 0)
(-0.0967674 0.194263 0)
(-0.134953 0.186486 0)
(-0.166945 0.171801 0)
(-0.199018 0.150209 0)
(-0.224435 0.125723 0)
(-0.246087 0.0958059 0)
(-0.260162 0.0636667 0)
(-0.268255 0.0288625 0)
(-0.268553 -0.00720618 0)
(-0.26165 -0.0430227 0)
(-0.248548 -0.0782399 0)
(-0.226629 -0.110134 0)
(-0.202233 -0.140147 0)
(-0.16615 -0.164524 0)
(-0.135031 -0.186947 0)
(-0.0858663 -0.202383 0)
(-0.0559711 -0.21217 0)
(0.00311874 -0.176258 0)
(1.12827e-24 -3.83033e-24 0)
(-0.016385 0.151729 0)
(-0.06191 0.23005 0)
(-0.107092 0.233085 0)
(-0.150213 0.222741 0)
(-0.188197 0.204399 0)
(-0.223295 0.179035 0)
(-0.251489 0.149404 0)
(-0.274875 0.113425 0)
(-0.2901 0.074694 0)
(-0.299212 0.0326164 0)
(-0.299882 -0.0106472 0)
(-0.293443 -0.0534282 0)
(-0.27968 -0.0958834 0)
(-0.256928 -0.133749 0)
(-0.230301 -0.17017 0)
(-0.191406 -0.198507 0)
(-0.156761 -0.225016 0)
(-0.103163 -0.241607 0)
(-0.0693004 -0.249088 0)
(-0.00196939 -0.207468 0)
(4.16665e-77 -2.82069e-25 0)
(-0.0151079 0.191126 0)
(-0.0626247 0.27995 0)
(-0.116101 0.284506 0)
(-0.164838 0.268619 0)
(-0.208463 0.246445 0)
(-0.247441 0.214151 0)
(-0.278013 0.178388 0)
(-0.303433 0.134704 0)
(-0.319415 0.0885425 0)
(-0.329829 0.0385651 0)
(-0.330936 -0.0129808 0)
(-0.325512 -0.0636819 0)
(-0.311527 -0.115169 0)
(-0.288666 -0.160502 0)
(-0.259902 -0.206184 0)
(-0.21825 -0.239958 0)
(-0.179003 -0.275217 0)
(-0.120129 -0.293426 0)
(-0.0817321 -0.311878 0)
(-0.0093774 -0.252443 0)
(9.95392e-165 -1.04166e-77 0)
(-0.0162303 0.227218 0)
(-0.0705668 0.329063 0)
(-0.133362 0.334357 0)
(-0.188566 0.313291 0)
(-0.237684 0.286573 0)
(-0.279989 0.247304 0)
(-0.311923 0.205275 0)
(-0.338272 0.154131 0)
(-0.353864 0.101131 0)
(-0.364975 0.0439492 0)
(-0.366068 -0.0148293 0)
(-0.362429 -0.0726587 0)
(-0.348986 -0.132411 0)
(-0.328173 -0.185005 0)
(-0.298475 -0.239711 0)
(-0.256841 -0.279176 0)
(-0.21283 -0.320854 0)
(-0.154472 -0.339583 0)
(-0.108343 -0.354135 0)
(-0.0654522 -0.293014 0)
(-3.61733e-266 0.0029186 0)
(-0.0187762 0.280168 0)
(-0.07955 0.399505 0)
(-0.151277 0.40562 0)
(-0.212643 0.374537 0)
(-0.266204 0.34055 0)
(-0.311128 0.289374 0)
(-0.343025 0.238522 0)
(-0.369464 0.177161 0)
(-0.383612 0.116113 0)
(-0.395139 0.0508845 0)
(-0.396099 -0.0156653 0)
(-0.39497 -0.0810714 0)
(-0.38308 -0.150517 0)
(-0.365891 -0.211901 0)
(-0.336744 -0.279359 0)
(-0.294718 -0.327405 0)
(-0.244884 -0.379737 0)
(-0.171103 -0.400978 0)
(-0.110597 -0.403634 0)
(-0.0185126 -0.363535 0)
(0.0116744 -0.0763577 0)
(-0.0241692 0.321911 0)
(-0.0975563 0.458322 0)
(-0.183729 0.465576 0)
(-0.253661 0.425208 0)
(-0.310369 0.384236 0)
(-0.356155 0.32201 0)
(-0.384219 0.263389 0)
(-0.408124 0.193611 0)
(-0.417838 0.126798 0)
(-0.428578 0.0562524 0)
(-0.428448 -0.0149773 0)
(-0.431089 -0.085033 0)
(-0.422012 -0.161394 0)
(-0.412418 -0.229976 0)
(-0.386469 -0.310359 0)
(-0.348484 -0.369256 0)
(-0.294 -0.442795 0)
(-0.199239 -0.472429 0)
(-0.124113 -0.503467 0)
(0.0579231 -0.414757 0)
(1.02603e-231 -0.0029186 0)
(-0.0311413 0.40642 0)
(-0.116524 0.56305 0)
(-0.215911 0.567613 0)
(-0.292785 0.503575 0)
(-0.350076 0.447888 0)
(-0.394492 0.364593 0)
(-0.416366 0.293629 0)
(-0.436192 0.211509 0)
(-0.440176 0.137915 0)
(-0.449506 0.0618193 0)
(-0.447933 -0.0135717 0)
(-0.454664 -0.0875226 0)
(-0.449366 -0.171458 0)
(-0.450058 -0.247978 0)
(-0.431045 -0.347436 0)
(-0.406586 -0.421587 0)
(-0.353663 -0.533924 0)
(-0.267369 -0.57581 0)
(-0.171304 -0.660681 0)
(0.00226538 -0.502979 0)
(8.79231e-203 8.10006e-185 0)
(-0.0478517 0.462678 0)
(-0.159679 0.636476 0)
(-0.281653 0.638443 0)
(-0.368026 0.553694 0)
(-0.41839 0.484665 0)
(-0.456207 0.384554 0)
(-0.462912 0.304802 0)
(-0.473994 0.215567 0)
(-0.467096 0.140071 0)
(-0.473312 0.0638563 0)
(-0.468601 -0.00992792 0)
(-0.481097 -0.0820773 0)
(-0.4805 -0.166174 0)
(-0.498169 -0.245008 0)
(-0.489311 -0.353654 0)
(-0.492188 -0.441775 0)
(-0.442916 -0.580264 0)
(-0.37521 -0.64987 0)
(-0.244755 -0.767822 0)
(-0.00204036 -0.585305 0)
(3.24002e-184 -1.16427e-183 0)
(-0.0658614 0.624055 0)
(-0.201607 0.803181 0)
(-0.33894 0.787946 0)
(-0.428922 0.64342 0)
(-0.467495 0.544872 0)
(-0.495751 0.410543 0)
(-0.48676 0.316504 0)
(-0.489255 0.216364 0)
(-0.472532 0.139175 0)
(-0.475804 0.0638036 0)
(-0.467973 -0.00666163 0)
(-0.484356 -0.0750542 0)
(-0.487523 -0.158494 0)
(-0.518845 -0.238474 0)
(-0.523134 -0.362048 0)
(-0.554418 -0.467454 0)
(-0.528382 -0.665736 0)
(-0.50415 -0.775055 0)
(-0.383219 -1.05334 0)
(-0.181624 -0.758493 0)
(2.45915e-255 -8.10006e-185 0)
(-0.124249 0.715507 0)
(-0.323479 0.895532 0)
(-0.476223 0.85998 0)
(-0.565787 0.671622 0)
(-0.563572 0.549919 0)
(-0.570286 0.397378 0)
(-0.528135 0.298116 0)
(-0.516103 0.198306 0)
(-0.482922 0.126583 0)
(-0.48207 0.0591384 0)
(-0.469416 -0.00165961 0)
(-0.492183 -0.0597272 0)
(-0.499484 -0.132228 0)
(-0.554482 -0.202952 0)
(-0.573931 -0.318301 0)
(-0.666746 -0.425631 0)
(-0.665383 -0.627711 0)
(-0.788813 -0.781161 0)
(-0.645092 -1.07311 0)
(-0.794925 -0.965252 0)
(-1.46137e-264 -0.105423 0)
(-0.171239 1.09639 0)
(-0.414105 1.16335 0)
(-0.551891 1.05546 0)
(-0.624665 0.73303 0)
(-0.583297 0.564538 0)
(-0.571302 0.375247 0)
(-0.507712 0.269708 0)
(-0.487987 0.170984 0)
(-0.446344 0.107561 0)
(-0.443819 0.0506823 0)
(-0.427725 0.00200442 0)
(-0.451627 -0.0435592 0)
(-0.458226 -0.102357 0)
(-0.519499 -0.160987 0)
(-0.547652 -0.264197 0)
(-0.661408 -0.369764 0)
(-0.702529 -0.575462 0)
(-0.863247 -0.778853 0)
(-0.843334 -1.12262 0)
(-0.903091 -1.34107 0)
(-0.421694 -0.937279 0)
(-0.374431 1.26497 0)
(-0.725334 1.24646 0)
(-0.706295 1.06211 0)
(-0.710365 0.684418 0)
(-0.539627 0.495516 0)
(-0.483797 0.311726 0)
(-0.368539 0.215138 0)
(-0.333352 0.132477 0)
(-0.274896 0.0824881 0)
(-0.269256 0.0402619 0)
(-0.248133 0.00553923 0)
(-0.275647 -0.0251533 0)
(-0.28198 -0.065738 0)
(-0.35864 -0.103386 0)
(-0.393873 -0.178241 0)
(-0.554811 -0.25101 0)
(-0.621466 -0.42661 0)
(-0.890035 -0.60623 0)
(-0.905014 -1.02851 0)
(-1.01601 -1.3358 0)
(-0.540478 -1.41071 0)
(-0.234181 2.26177 0)
(-0.24936 1.49468 0)
(0.0846448 1.09155 0)
(0.215647 0.560508 0)
(0.46133 0.359879 0)
(0.547235 0.199551 0)
(0.675657 0.127816 0)
(0.714826 0.0750207 0)
(0.775418 0.0457728 0)
(0.782391 0.0238067 0)
(0.807405 0.00646242 0)
(0.785163 -0.00743866 0)
(0.789761 -0.026609 0)
(0.726821 -0.0436947 0)
(0.715722 -0.0852261 0)
(0.57981 -0.132367 0)
(0.547575 -0.278159 0)
(0.27629 -0.480065 0)
(0.207686 -1.07248 0)
(-0.219073 -1.69722 0)
(-0.16999 -2.59363 0)
(1.66697 1.63683 0)
(2.50992 0.861916 0)
(3.89124 0.591968 0)
(4.27055 0.280999 0)
(4.69595 0.167878 0)
(4.82251 0.0851149 0)
(4.96715 0.050391 0)
(5.00857 0.0276978 0)
(5.06462 0.0158556 0)
(5.07229 0.00799937 0)
(5.09556 0.00190903 0)
(5.07947 -0.00300397 0)
(5.08804 -0.0101783 0)
(5.03777 -0.0173825 0)
(5.03521 -0.0358564 0)
(4.90531 -0.0561196 0)
(4.86546 -0.126065 0)
(4.47629 -0.207166 0)
(4.22204 -0.511127 0)
(2.82594 -0.83215 0)
(1.78907 -1.6572 0)
)
;

boundaryField
{
    movingWall
    {
        type            fixedValue;
        value           uniform (10 0 0);
    }
    fixedWalls
    {
        type            noSlip;
    }
    frontAndBack
    {
        type            empty;
    }
}


// ************************************************************************* //
