/*--------------------------------*- C++ -*----------------------------------*\
| =========                 |                                                 |
| \\      /  F ield         | OpenFOAM: The Open Source CFD Toolbox           |
|  \\    /   O peration     | Version:  4.1                                   |
|   \\  /    A nd           | Web:      www.OpenFOAM.org                      |
|    \\/     M anipulation  |                                                 |
\*---------------------------------------------------------------------------*/
FoamFile
{
    version     2.0;
    format      ascii;
    class       volVectorField;
    location    "0.00459";
    object      U;
}
// * * * * * * * * * * * * * * * * * * * * * * * * * * * * * * * * * * * * * //

dimensions      [0 1 -1 0 0 0 0];

internalField   nonuniform List<vector> 
1681
(
(0.000117542 -0.000109126 0)
(-0.000431971 0.000406076 0)
(-0.00247898 0.000893927 0)
(-0.00561346 0.00124605 0)
(-0.00944996 0.00143558 0)
(-0.0136134 0.0015098 0)
(-0.0178633 0.00151164 0)
(-0.0220532 0.00147315 0)
(-0.0261008 0.00141216 0)
(-0.0299572 0.00133749 0)
(-0.0335895 0.00125303 0)
(-0.0369723 0.00116044 0)
(-0.0400838 0.00106059 0)
(-0.0429041 0.000954048 0)
(-0.0454154 0.000841331 0)
(-0.0476012 0.00072298 0)
(-0.0494469 0.000599567 0)
(-0.0509394 0.000471712 0)
(-0.0520677 0.000340076 0)
(-0.0528226 0.000205374 0)
(-0.0531969 6.83695e-05 0)
(-0.0531858 -7.01208e-05 0)
(-0.0527868 -0.000209229 0)
(-0.0519998 -0.00034804 0)
(-0.0508272 -0.00048559 0)
(-0.0492744 -0.000620881 0)
(-0.0473493 -0.000752891 0)
(-0.0450628 -0.000880588 0)
(-0.0424285 -0.00100296 0)
(-0.039463 -0.00111904 0)
(-0.0361852 -0.00122795 0)
(-0.0326172 -0.00132878 0)
(-0.0287835 -0.00142036 0)
(-0.0247139 -0.00150025 0)
(-0.0204486 -0.00156242 0)
(-0.0160519 -0.0015929 0)
(-0.0116403 -0.00156302 0)
(-0.00742139 -0.00142518 0)
(-0.00375143 -0.00111489 0)
(-0.00109039 -0.000605606 0)
(-9.93055e-06 -2.50545e-06 0)
(-0.00021162 0.000338782 0)
(-0.00251928 0.00312955 0)
(-0.00802251 0.00581548 0)
(-0.0158062 0.00775981 0)
(-0.0250812 0.00885114 0)
(-0.0350588 0.00929514 0)
(-0.0452209 0.00931903 0)
(-0.0552388 0.00909566 0)
(-0.0649199 0.00872796 0)
(-0.0741443 0.00826958 0)
(-0.0828303 0.00774617 0)
(-0.0909145 0.00716996 0)
(-0.0983433 0.00654756 0)
(-0.105069 0.00588342 0)
(-0.11105 0.00518137 0)
(-0.116246 0.00444508 0)
(-0.120625 0.00367836 0)
(-0.124155 0.00288517 0)
(-0.126813 0.00206972 0)
(-0.128576 0.00123647 0)
(-0.129431 0.000390137 0)
(-0.129365 -0.00046425 0)
(-0.128376 -0.0013214 0)
(-0.126462 -0.00217574 0)
(-0.123632 -0.00302147 0)
(-0.119899 -0.00385255 0)
(-0.115283 -0.00466283 0)
(-0.109809 -0.00544606 0)
(-0.103511 -0.00619605 0)
(-0.0964291 -0.00690674 0)
(-0.0886084 -0.00757216 0)
(-0.0801027 -0.00818589 0)
(-0.0709737 -0.00873895 0)
(-0.0612965 -0.00921423 0)
(-0.0511719 -0.00957395 0)
(-0.0407543 -0.00973727 0)
(-0.0303038 -0.00955003 0)
(-0.0202566 -0.00876687 0)
(-0.0113214 -0.00708915 0)
(-0.00439079 -0.0043717 0)
(-0.000610372 -0.00106517 0)
(-0.000382781 0.00174992 0)
(-0.00394402 0.00829966 0)
(-0.0120772 0.0142216 0)
(-0.0231971 0.0184504 0)
(-0.0362323 0.0208283 0)
(-0.0501244 0.0217911 0)
(-0.0642046 0.0218235 0)
(-0.0780484 0.0212959 0)
(-0.0914065 0.0204337 0)
(-0.104122 0.0193572 0)
(-0.116085 0.0181261 0)
(-0.127212 0.0167698 0)
(-0.137429 0.0153048 0)
(-0.146673 0.0137424 0)
(-0.154885 0.0120921 0)
(-0.162015 0.0103628 0)
(-0.168015 0.00856365 0)
(-0.172847 0.00670405 0)
(-0.176475 0.00479392 0)
(-0.178874 0.0028437 0)
(-0.180022 0.000864433 0)
(-0.179905 -0.00113224 0)
(-0.178519 -0.00313407 0)
(-0.175865 -0.0051282 0)
(-0.171953 -0.00710123 0)
(-0.166801 -0.00903932 0)
(-0.160438 -0.0109282 0)
(-0.152899 -0.0127536 0)
(-0.14423 -0.0145009 0)
(-0.134484 -0.0161557 0)
(-0.123727 -0.0177036 0)
(-0.112032 -0.0191279 0)
(-0.099485 -0.0204059 0)
(-0.0861912 -0.0214959 0)
(-0.07229 -0.022312 0)
(-0.057988 -0.0226798 0)
(-0.0436212 -0.0222791 0)
(-0.0297349 -0.0206123 0)
(-0.0172028 -0.0170779 0)
(-0.00714135 -0.0112927 0)
(-0.00111944 -0.00370274 0)
(-0.000214276 0.00323299 0)
(-0.00409896 0.0149454 0)
(-0.0141529 0.024986 0)
(-0.0276645 0.0319526 0)
(-0.0433066 0.035785 0)
(-0.0598017 0.0372779 0)
(-0.0764097 0.0372479 0)
(-0.0926704 0.036302 0)
(-0.10832 0.034806 0)
(-0.123192 0.0329548 0)
(-0.13717 0.0308449 0)
(-0.15016 0.0285248 0)
(-0.162081 0.0260217 0)
(-0.172861 0.0233546 0)
(-0.182434 0.0205394 0)
(-0.190741 0.0175916 0)
(-0.197729 0.0145265 0)
(-0.203352 0.0113602 0)
(-0.207571 0.00810954 0)
(-0.210356 0.00479209 0)
(-0.211683 0.00142655 0)
(-0.211536 -0.00196746 0)
(-0.209908 -0.00536927 0)
(-0.206803 -0.00875726 0)
(-0.20223 -0.0121089 0)
(-0.196213 -0.0154008 0)
(-0.188782 -0.0186091 0)
(-0.17998 -0.0217092 0)
(-0.169858 -0.0246768 0)
(-0.15848 -0.0274869 0)
(-0.14592 -0.030114 0)
(-0.132265 -0.0325292 0)
(-0.117616 -0.0346922 0)
(-0.102094 -0.0365324 0)
(-0.0858612 -0.0379091 0)
(-0.0691493 -0.0385445 0)
(-0.0523298 -0.0379365 0)
(-0.0359995 -0.035307 0)
(-0.021123 -0.0296925 0)
(-0.00896971 -0.0203364 0)
(-0.00144786 -0.00738499 0)
(0.000146331 0.00466328 0)
(-0.00298102 0.0227563 0)
(-0.0147567 0.037679 0)
(-0.0300992 0.0475989 0)
(-0.0476156 0.0528772 0)
(-0.0658704 0.0548052 0)
(-0.0841194 0.0545967 0)
(-0.101907 0.0531152 0)
(-0.118978 0.0508708 0)
(-0.135174 0.0481311 0)
(-0.15038 0.0450272 0)
(-0.164502 0.0416241 0)
(-0.177456 0.037959 0)
(-0.189168 0.034058 0)
(-0.199566 0.0299437 0)
(-0.208589 0.0256379 0)
(-0.216179 0.0211629 0)
(-0.222288 0.0165418 0)
(-0.226875 0.0117989 0)
(-0.229904 0.00695968 0)
(-0.23135 0.00205114 0)
(-0.231197 -0.00289838 0)
(-0.229436 -0.00785906 0)
(-0.226069 -0.0127996 0)
(-0.221108 -0.0176875 0)
(-0.214575 -0.0224889 0)
(-0.206503 -0.0271689 0)
(-0.196936 -0.0316921 0)
(-0.185931 -0.0360226 0)
(-0.173555 -0.0401237 0)
(-0.159888 -0.0439576 0)
(-0.145024 -0.0474811 0)
(-0.129072 -0.0506349 0)
(-0.112163 -0.0533174 0)
(-0.0944702 -0.0553309 0)
(-0.0762383 -0.0562896 0)
(-0.0578574 -0.0555003 0)
(-0.0399554 -0.0518805 0)
(-0.0235626 -0.0440501 0)
(-0.0100682 -0.0307709 0)
(-0.00163155 -0.0117185 0)
(4.43745e-268 3.65829e-05 0)
(-0.00278017 0.0303734 0)
(-0.0155504 0.0516288 0)
(-0.0320393 0.0647301 0)
(-0.0507596 0.0714132 0)
(-0.0701633 0.0736707 0)
(-0.0894895 0.0731776 0)
(-0.10828 0.0710658 0)
(-0.126286 0.0679891 0)
(-0.143351 0.0642834 0)
(-0.159363 0.0601106 0)
(-0.174229 0.0555502 0)
(-0.187863 0.0506472 0)
(-0.200189 0.0454343 0)
(-0.211136 0.0399403 0)
(-0.220637 0.0341934 0)
(-0.228635 0.0282226 0)
(-0.235078 0.0220583 0)
(-0.239922 0.0157324 0)
(-0.243131 0.0092784 0)
(-0.244677 0.00273186 0)
(-0.244541 -0.00386987 0)
(-0.242714 -0.0104874 0)
(-0.239196 -0.0170796 0)
(-0.233997 -0.023603 0)
(-0.227139 -0.0300131 0)
(-0.218654 -0.0362633 0)
(-0.208589 -0.0423064 0)
(-0.196999 -0.048094 0)
(-0.183955 -0.053577 0)
(-0.16954 -0.0587041 0)
(-0.15385 -0.0634168 0)
(-0.137001 -0.067636 0)
(-0.11913 -0.071228 0)
(-0.100415 -0.0739365 0)
(-0.0811119 -0.0752647 0)
(-0.0616249 -0.0743189 0)
(-0.0426102 -0.0696907 0)
(-0.0251567 -0.0595393 0)
(-0.0107526 -0.0420743 0)
(-0.00173796 -0.016427 0)
(4.71305e-27 3.48389e-25 0)
(-0.00403168 0.0391553 0)
(-0.0171981 0.0663893 0)
(-0.0343565 0.0827277 0)
(-0.0538007 0.0908423 0)
(-0.0739676 0.0934126 0)
(-0.0940536 0.0925966 0)
(-0.113583 0.0898087 0)
(-0.132294 0.0858513 0)
(-0.150027 0.0811307 0)
(-0.166664 0.0758394 0)
(-0.18211 0.0700711 0)
(-0.196279 0.0638786 0)
(-0.209092 0.0573007 0)
(-0.220477 0.0503722 0)
(-0.230365 0.0431274 0)
(-0.238697 0.0356022 0)
(-0.24542 0.0278339 0)
(-0.250487 0.0198621 0)
(-0.253861 0.0117282 0)
(-0.25551 0.00347637 0)
(-0.255413 -0.00484706 0)
(-0.253559 -0.0131931 0)
(-0.249945 -0.0215102 0)
(-0.244581 -0.0297443 0)
(-0.237484 -0.0378392 0)
(-0.228687 -0.0457367 0)
(-0.218234 -0.0533766 0)
(-0.206181 -0.0606978 0)
(-0.1926 -0.0676376 0)
(-0.177573 -0.0741303 0)
(-0.161203 -0.0801013 0)
(-0.143604 -0.0854504 0)
(-0.124922 -0.0900109 0)
(-0.105339 -0.0934659 0)
(-0.0851227 -0.0952027 0)
(-0.0646932 -0.0941172 0)
(-0.044738 -0.0884545 0)
(-0.0264046 -0.0758782 0)
(-0.0112695 -0.0540019 0)
(-0.00181467 -0.0213854 0)
(-3.3254e-79 1.17826e-27 0)
(-0.00546153 0.0484476 0)
(-0.0193064 0.0816804 0)
(-0.0371026 0.101304 0)
(-0.0571352 0.110894 0)
(-0.0779348 0.113807 0)
(-0.0986761 0.112676 0)
(-0.118865 0.109202 0)
(-0.138222 0.10434 0)
(-0.156573 0.0985732 0)
(-0.173796 0.0921272 0)
(-0.18979 0.0851117 0)
(-0.204467 0.0775884 0)
(-0.217747 0.0696025 0)
(-0.229554 0.0611947 0)
(-0.239821 0.0524056 0)
(-0.248484 0.0432775 0)
(-0.255488 0.0338548 0)
(-0.260786 0.0241841 0)
(-0.264335 0.014315 0)
(-0.266104 0.00429978 0)
(-0.266067 -0.00580617 0)
(-0.26421 -0.0159443 0)
(-0.260527 -0.0260528 0)
(-0.255023 -0.0360667 0)
(-0.247716 -0.0459181 0)
(-0.238633 -0.055536 0)
(-0.227816 -0.0648475 0)
(-0.215322 -0.0737775 0)
(-0.20122 -0.0822488 0)
(-0.185595 -0.0901804 0)
(-0.168549 -0.0974804 0)
(-0.150203 -0.104026 0)
(-0.130704 -0.109616 0)
(-0.110245 -0.113869 0)
(-0.0891028 -0.116052 0)
(-0.0677211 -0.114837 0)
(-0.0468227 -0.108104 0)
(-0.0276176 -0.0929906 0)
(-0.011769 -0.0664839 0)
(-0.00188931 -0.026559 0)
(-2.66333e-166 -8.31351e-80 0)
(-0.00775239 0.0586746 0)
(-0.0219996 0.0977012 0)
(-0.0403028 0.120469 0)
(-0.0608754 0.131536 0)
(-0.0823264 0.134828 0)
(-0.103764 0.133404 0)
(-0.124656 0.129243 0)
(-0.144699 0.123461 0)
(-0.163708 0.11662 0)
(-0.181553 0.108985 0)
(-0.198131 0.100685 0)
(-0.213352 0.0917914 0)
(-0.227132 0.0823559 0)
(-0.239395 0.0724254 0)
(-0.250072 0.0620467 0)
(-0.259097 0.0512682 0)
(-0.266414 0.0401411 0)
(-0.27197 0.0287191 0)
(-0.275722 0.0170593 0)
(-0.277635 0.00522207 0)
(-0.277679 -0.00672857 0)
(-0.275836 -0.0187247 0)
(-0.272095 -0.0306942 0)
(-0.26646 -0.0425612 0)
(-0.25894 -0.0542456 0)
(-0.249563 -0.0656638 0)
(-0.238366 -0.0767289 0)
(-0.225402 -0.0873511 0)
(-0.21074 -0.0974378 0)
(-0.194465 -0.106891 0)
(-0.176681 -0.115601 0)
(-0.157511 -0.123419 0)
(-0.137109 -0.130107 0)
(-0.115677 -0.135217 0)
(-0.0935085 -0.137884 0)
(-0.0710706 -0.136548 0)
(-0.0491287 -0.1287 0)
(-0.0289626 -0.110925 0)
(-0.0123282 -0.0795534 0)
(-0.00197499 -0.0319635 0)
(-4.4492e-267 0.000250722 0)
(-0.0115273 0.0691716 0)
(-0.0250032 0.113709 0)
(-0.0436383 0.139959 0)
(-0.0648656 0.152751 0)
(-0.0871618 0.156552 0)
(-0.109466 0.154874 0)
(-0.131195 0.150018 0)
(-0.152029 0.143286 0)
(-0.17178 0.135335 0)
(-0.190321 0.126472 0)
(-0.20755 0.116846 0)
(-0.223376 0.106539 0)
(-0.237715 0.0956098 0)
(-0.25049 0.0841104 0)
(-0.261629 0.0720938 0)
(-0.271064 0.0596145 0)
(-0.278736 0.0467298 0)
(-0.284591 0.0335002 0)
(-0.288581 0.01999 0)
(-0.290667 0.00626714 0)
(-0.290815 -0.00759604 0)
(-0.289003 -0.0215225 0)
(-0.285214 -0.0354303 0)
(-0.279446 -0.0492323 0)
(-0.271705 -0.0628364 0)
(-0.26201 -0.0761457 0)
(-0.250397 -0.0890586 0)
(-0.236915 -0.10147 0)
(-0.221629 -0.11327 0)
(-0.204625 -0.124342 0)
(-0.186006 -0.134556 0)
(-0.165902 -0.143737 0)
(-0.144471 -0.151606 0)
(-0.121927 -0.157639 0)
(-0.0985811 -0.160837 0)
(-0.0749318 -0.159388 0)
(-0.0517931 -0.150373 0)
(-0.0305238 -0.129794 0)
(-0.0129836 -0.0932955 0)
(-0.00207735 -0.0376376 0)
(-0.00100289 0.0193704 0)
(-0.0104261 0.0823558 0)
(-0.0253711 0.130339 0)
(-0.0456968 0.16031 0)
(-0.0686176 0.174997 0)
(-0.0923411 0.17931 0)
(-0.115847 0.177308 0)
(-0.138611 0.17168 0)
(-0.160367 0.163931 0)
(-0.180962 0.154811 0)
(-0.200285 0.144669 0)
(-0.218244 0.133669 0)
(-0.234749 0.1219 0)
(-0.249716 0.109428 0)
(-0.263068 0.0963089 0)
(-0.274728 0.0826017 0)
(-0.284629 0.0683663 0)
(-0.292708 0.053666 0)
(-0.298906 0.0385675 0)
(-0.303175 0.0231414 0)
(-0.305468 0.00746303 0)
(-0.305748 -0.00838768 0)
(-0.303986 -0.0243251 0)
(-0.300161 -0.0402576 0)
(-0.294261 -0.0560874 0)
(-0.286287 -0.0717099 0)
(-0.276252 -0.0870144 0)
(-0.264185 -0.101884 0)
(-0.250129 -0.116197 0)
(-0.234147 -0.129825 0)
(-0.216322 -0.142632 0)
(-0.196759 -0.154463 0)
(-0.175589 -0.165114 0)
(-0.152981 -0.17426 0)
(-0.129161 -0.1813 0)
(-0.104461 -0.185083 0)
(-0.0794148 -0.183531 0)
(-0.0548935 -0.173291 0)
(-0.0323467 -0.149747 0)
(-0.013754 -0.107822 0)
(-0.00219897 -0.0436304 0)
(0.000621309 0.0217946 0)
(-0.00302866 0.0948502 0)
(-0.0231668 0.149884 0)
(-0.047046 0.183408 0)
(-0.0726709 0.199369 0)
(-0.0982619 0.203667 0)
(-0.123174 0.201003 0)
(-0.147086 0.194399 0)
(-0.16985 0.18551 0)
(-0.191368 0.175141 0)
(-0.211553 0.163658 0)
(-0.230319 0.151229 0)
(-0.247579 0.137947 0)
(-0.263248 0.123879 0)
(-0.277244 0.109085 0)
(-0.289491 0.0936304 0)
(-0.299917 0.0775789 0)
(-0.308456 0.0609999 0)
(-0.315049 0.0439657 0)
(-0.319641 0.0265528 0)
(-0.322181 0.00884265 0)
(-0.322626 -0.00907781 0)
(-0.320941 -0.0271151 0)
(-0.317096 -0.0451687 0)
(-0.311071 -0.0631301 0)
(-0.302859 -0.0808826 0)
(-0.292464 -0.0983015 0)
(-0.279906 -0.115254 0)
(-0.265222 -0.1316 0)
(-0.24847 -0.14719 0)
(-0.22973 -0.161867 0)
(-0.209105 -0.175448 0)
(-0.186732 -0.187697 0)
(-0.162785 -0.198238 0)
(-0.137507 -0.206381 0)
(-0.111254 -0.210816 0)
(-0.0846018 -0.209179 0)
(-0.0584872 -0.19765 0)
(-0.0344647 -0.170959 0)
(-0.0146525 -0.123264 0)
(-0.00234162 -0.0499978 0)
(4.36286e-282 0.000155327 0)
(-0.00354164 0.106155 0)
(-0.0262069 0.172658 0)
(-0.0520462 0.209349 0)
(-0.0791743 0.225821 0)
(-0.105973 0.229553 0)
(-0.131952 0.225922 0)
(-0.156874 0.218181 0)
(-0.180619 0.208062 0)
(-0.203092 0.196384 0)
(-0.2242 0.18351 0)
(-0.243847 0.169603 0)
(-0.261938 0.154754 0)
(-0.278382 0.139034 0)
(-0.293094 0.122507 0)
(-0.305993 0.105242 0)
(-0.317006 0.0873105 0)
(-0.326065 0.0687853 0)
(-0.333106 0.0497441 0)
(-0.33807 0.0302683 0)
(-0.340902 0.0104446 0)
(-0.341553 -0.00963437 0)
(-0.339977 -0.0298683 0)
(-0.336136 -0.0501486 0)
(-0.330002 -0.0703569 0)
(-0.321555 -0.0903645 0)
(-0.310788 -0.110033 0)
(-0.297711 -0.129211 0)
(-0.282352 -0.147741 0)
(-0.26476 -0.16545 0)
(-0.245009 -0.182156 0)
(-0.223203 -0.197646 0)
(-0.199478 -0.211646 0)
(-0.17402 -0.223722 0)
(-0.147086 -0.233087 0)
(-0.119063 -0.238257 0)
(-0.0905734 -0.236557 0)
(-0.0626306 -0.22367 0)
(-0.0369107 -0.193624 0)
(-0.0156925 -0.139763 0)
(-0.00250723 -0.0568007 0)
(-5.89565e-248 2.0487e-165 0)
(-0.0140088 0.122362 0)
(-0.0359151 0.19685 0)
(-0.0615956 0.236034 0)
(-0.0885466 0.252946 0)
(-0.115649 0.256193 0)
(-0.142248 0.251689 0)
(-0.168005 0.24288 0)
(-0.1927 0.231564 0)
(-0.216168 0.218579 0)
(-0.238268 0.20429 0)
(-0.258877 0.188864 0)
(-0.277881 0.172397 0)
(-0.295178 0.154966 0)
(-0.310678 0.136643 0)
(-0.324298 0.117503 0)
(-0.335963 0.0976218 0)
(-0.345601 0.0770791 0)
(-0.353147 0.055956 0)
(-0.358538 0.0343375 0)
(-0.361714 0.012314 0)
(-0.362617 -0.0100175 0)
(-0.361193 -0.0325516 0)
(-0.357393 -0.0551729 0)
(-0.351176 -0.0777542 0)
(-0.342509 -0.100156 0)
(-0.33137 -0.122224 0)
(-0.317757 -0.143792 0)
(-0.301682 -0.164678 0)
(-0.283186 -0.184688 0)
(-0.262333 -0.203609 0)
(-0.239223 -0.221195 0)
(-0.213995 -0.237127 0)
(-0.186841 -0.250905 0)
(-0.158039 -0.261637 0)
(-0.128006 -0.267643 0)
(-0.097422 -0.265914 0)
(-0.0673886 -0.251595 0)
(-0.0397231 -0.21796 0)
(-0.0168899 -0.157483 0)
(-0.00269824 -0.0641066 0)
(-8.1948e-165 0.00186294 0)
(-0.0293762 0.139692 0)
(-0.0486388 0.219567 0)
(-0.0731679 0.261582 0)
(-0.099306 0.279624 0)
(-0.126456 0.283022 0)
(-0.153618 0.278068 0)
(-0.180261 0.268439 0)
(-0.206001 0.256049 0)
(-0.230574 0.241797 0)
(-0.253778 0.226083 0)
(-0.27545 0.209099 0)
(-0.295459 0.190958 0)
(-0.313693 0.171751 0)
(-0.330056 0.151563 0)
(-0.344466 0.130477 0)
(-0.356847 0.108575 0)
(-0.367126 0.085941 0)
(-0.375238 0.0626587 0)
(-0.381116 0.0388156 0)
(-0.384694 0.0145037 0)
(-0.385905 -0.0101781 0)
(-0.384687 -0.0351211 0)
(-0.380977 -0.0602051 0)
(-0.374718 -0.0852956 0)
(-0.36586 -0.110243 0)
(-0.354365 -0.134879 0)
(-0.34021 -0.159019 0)
(-0.323394 -0.182461 0)
(-0.303938 -0.204981 0)
(-0.281898 -0.226335 0)
(-0.257364 -0.246237 0)
(-0.230475 -0.264316 0)
(-0.201431 -0.28 0)
(-0.170529 -0.292273 0)
(-0.138223 -0.299242 0)
(-0.105259 -0.29753 0)
(-0.07284 -0.281699 0)
(-0.0429488 -0.244211 0)
(-0.0182649 -0.176603 0)
(-0.00291778 -0.0719911 0)
(-0.00745176 0.0520728 0)
(-0.0365162 0.164948 0)
(-0.0568945 0.24232 0)
(-0.0819844 0.286555 0)
(-0.108886 0.306245 0)
(-0.137033 0.310345 0)
(-0.16538 0.305311 0)
(-0.193319 0.295066 0)
(-0.220392 0.28169 0)
(-0.246281 0.266184 0)
(-0.270748 0.249013 0)
(-0.293612 0.230413 0)
(-0.31473 0.210528 0)
(-0.333987 0.189471 0)
(-0.35129 0.167341 0)
(-0.366558 0.144233 0)
(-0.379719 0.120234 0)
(-0.390703 0.0954328 0)
(-0.399444 0.0699138 0)
(-0.405872 0.0437641 0)
(-0.409917 0.0170747 0)
(-0.411505 -0.0100563 0)
(-0.410559 -0.0375199 0)
(-0.407002 -0.0651938 0)
(-0.400758 -0.0929385 0)
(-0.391758 -0.120596 0)
(-0.379941 -0.147985 0)
(-0.365261 -0.174903 0)
(-0.347692 -0.201124 0)
(-0.327238 -0.226396 0)
(-0.303934 -0.250436 0)
(-0.27786 -0.272913 0)
(-0.249149 -0.293398 0)
(-0.218009 -0.311231 0)
(-0.184755 -0.325258 0)
(-0.149885 -0.333348 0)
(-0.114219 -0.331719 0)
(-0.0790822 -0.314295 0)
(-0.0466465 -0.272656 0)
(-0.0198423 -0.197329 0)
(-0.0031698 -0.0805399 0)
(-0.00700777 0.0674434 0)
(-0.0319883 0.186482 0)
(-0.0576245 0.26697 0)
(-0.0863254 0.31361 0)
(-0.116241 0.33472 0)
(-0.146803 0.339354 0)
(-0.177242 0.334154 0)
(-0.207057 0.323231 0)
(-0.235848 0.3088 0)
(-0.263319 0.291959 0)
(-0.289239 0.273241 0)
(-0.313434 0.25293 0)
(-0.335767 0.231206 0)
(-0.356134 0.208206 0)
(-0.374448 0.184047 0)
(-0.390638 0.158834 0)
(-0.404639 0.132661 0)
(-0.416389 0.105617 0)
(-0.425823 0.0777859 0)
(-0.432871 0.0492506 0)
(-0.437458 0.0200975 0)
(-0.439501 -0.00957975 0)
(-0.438908 -0.0396759 0)
(-0.435586 -0.0700699 0)
(-0.429438 -0.100621 0)
(-0.420367 -0.131164 0)
(-0.408286 -0.161507 0)
(-0.393119 -0.191432 0)
(-0.374812 -0.220686 0)
(-0.353338 -0.248985 0)
(-0.328709 -0.276007 0)
(-0.300986 -0.301366 0)
(-0.270292 -0.324565 0)
(-0.236838 -0.344842 0)
(-0.200959 -0.360885 0)
(-0.163203 -0.370294 0)
(-0.124473 -0.368836 0)
(-0.0862362 -0.349736 0)
(-0.0508891 -0.303614 0)
(-0.0216537 -0.219897 0)
(-0.00345929 -0.0898514 0)
(-0.00558778 0.0831005 0)
(-0.0286431 0.211213 0)
(-0.0573697 0.295945 0)
(-0.0895357 0.344486 0)
(-0.122899 0.366367 0)
(-0.156483 0.371006 0)
(-0.189564 0.365266 0)
(-0.221691 0.353395 0)
(-0.252528 0.337699 0)
(-0.281819 0.319348 0)
(-0.309368 0.29893 0)
(-0.335022 0.27677 0)
(-0.358668 0.253083 0)
(-0.380218 0.228029 0)
(-0.399604 0.201743 0)
(-0.41677 0.174339 0)
(-0.431666 0.145914 0)
(-0.444238 0.116555 0)
(-0.454429 0.0863421 0)
(-0.46217 0.0553489 0)
(-0.467382 0.0236529 0)
(-0.46997 -0.00866197 0)
(-0.469831 -0.0414988 0)
(-0.466848 -0.0747427 0)
(-0.460899 -0.108255 0)
(-0.451857 -0.141869 0)
(-0.439601 -0.175385 0)
(-0.424018 -0.208567 0)
(-0.405015 -0.241139 0)
(-0.382528 -0.272783 0)
(-0.356535 -0.303129 0)
(-0.327068 -0.331733 0)
(-0.294234 -0.358013 0)
(-0.258239 -0.381093 0)
(-0.219441 -0.399474 0)
(-0.178437 -0.410451 0)
(-0.13623 -0.409288 0)
(-0.0944543 -0.388435 0)
(-0.055769 -0.337456 0)
(-0.0237387 -0.244582 0)
(-0.00379254 -0.10004 0)
(-0.00480284 0.0958128 0)
(-0.0268264 0.236469 0)
(-0.0577662 0.327513 0)
(-0.0930742 0.378684 0)
(-0.129915 0.401304 0)
(-0.166779 0.405644 0)
(-0.202816 0.399013 0)
(-0.23755 0.385871 0)
(-0.270676 0.368636 0)
(-0.301979 0.348539 0)
(-0.331299 0.326218 0)
(-0.358517 0.302036 0)
(-0.38355 0.276236 0)
(-0.406337 0.249002 0)
(-0.426838 0.220481 0)
(-0.44502 0.190796 0)
(-0.460852 0.160044 0)
(-0.474297 0.128306 0)
(-0.485306 0.0956505 0)
(-0.493817 0.0621389 0)
(-0.499744 0.0278326 0)
(-0.502985 -0.00720032 0)
(-0.503418 -0.0428775 0)
(-0.500903 -0.0790961 0)
(-0.495288 -0.115726 0)
(-0.48641 -0.152602 0)
(-0.474105 -0.189522 0)
(-0.458215 -0.226236 0)
(-0.438599 -0.262444 0)
(-0.415142 -0.297793 0)
(-0.387776 -0.331862 0)
(-0.356494 -0.364137 0)
(-0.321372 -0.393943 0)
(-0.282605 -0.420262 0)
(-0.240567 -0.441382 0)
(-0.195911 -0.454244 0)
(-0.149755 -0.453545 0)
(-0.10393 -0.430868 0)
(-0.0614036 -0.374616 0)
(-0.0261481 -0.271709 0)
(-0.0041776 -0.11124 0)
(-0.00450382 0.107947 0)
(-0.026561 0.262844 0)
(-0.0595373 0.361605 0)
(-0.0978308 0.416118 0)
(-0.138093 0.439599 0)
(-0.178329 0.44345 0)
(-0.217486 0.435617 0)
(-0.255012 0.420874 0)
(-0.290595 0.401789 0)
(-0.324044 0.379673 0)
(-0.355235 0.355211 0)
(-0.384085 0.328801 0)
(-0.410548 0.300716 0)
(-0.434599 0.271159 0)
(-0.456233 0.240291 0)
(-0.475448 0.208236 0)
(-0.492241 0.17509 0)
(-0.506597 0.14092 0)
(-0.518483 0.105779 0)
(-0.52784 0.0697061 0)
(-0.534583 0.0327402 0)
(-0.538599 -0.00507394 0)
(-0.539746 -0.0436764 0)
(-0.537858 -0.0829837 0)
(-0.532747 -0.122881 0)
(-0.524209 -0.163213 0)
(-0.512029 -0.203779 0)
(-0.495992 -0.24432 0)
(-0.475895 -0.284518 0)
(-0.451561 -0.32398 0)
(-0.422858 -0.362233 0)
(-0.389721 -0.398685 0)
(-0.352183 -0.432547 0)
(-0.310414 -0.462641 0)
(-0.264796 -0.486999 0)
(-0.216037 -0.502155 0)
(-0.165388 -0.502152 0)
(-0.114911 -0.477603 0)
(-0.067945 -0.415613 0)
(-0.0289476 -0.301663 0)
(-0.00462482 -0.123612 0)
(-0.00453345 0.12006 0)
(-0.0274251 0.290559 0)
(-0.0626923 0.398189 0)
(-0.104095 0.456726 0)
(-0.147857 0.481266 0)
(-0.191576 0.484514 0)
(-0.233989 0.475209 0)
(-0.274442 0.45854 0)
(-0.3126 0.43728 0)
(-0.348286 0.412842 0)
(-0.381405 0.385969 0)
(-0.411915 0.357102 0)
(-0.439813 0.32654 0)
(-0.465118 0.294508 0)
(-0.48787 0.261177 0)
(-0.508107 0.22667 0)
(-0.525864 0.191075 0)
(-0.541154 0.15444 0)
(-0.553965 0.116792 0)
(-0.564248 0.0781411 0)
(-0.571916 0.0384924 0)
(-0.576846 -0.00214163 0)
(-0.578876 -0.0437322 0)
(-0.577807 -0.0862241 0)
(-0.573414 -0.129527 0)
(-0.565441 -0.173504 0)
(-0.553614 -0.217963 0)
(-0.537651 -0.262647 0)
(-0.517271 -0.307219 0)
(-0.492216 -0.351255 0)
(-0.462272 -0.394223 0)
(-0.427294 -0.435446 0)
(-0.387247 -0.474005 0)
(-0.342258 -0.508532 0)
(-0.2927 -0.536756 0)
(-0.239337 -0.554732 0)
(-0.183565 -0.555749 0)
(-0.127721 -0.529312 0)
(-0.0755929 -0.461072 0)
(-0.0322235 -0.334913 0)
(-0.00514784 -0.137351 0)
(-0.00476678 0.132716 0)
(-0.0291329 0.320126 0)
(-0.0671396 0.437593 0)
(-0.111981 0.500705 0)
(-0.159477 0.526452 0)
(-0.20687 0.528973 0)
(-0.252697 0.517917 0)
(-0.296205 0.498979 0)
(-0.337029 0.47519 0)
(-0.375002 0.448096 0)
(-0.410064 0.418515 0)
(-0.442216 0.386933 0)
(-0.471507 0.353686 0)
(-0.498012 0.319017 0)
(-0.521823 0.283107 0)
(-0.543035 0.246078 0)
(-0.561728 0.208 0)
(-0.577956 0.168894 0)
(-0.59173 0.128751 0)
(-0.603017 0.0875391 0)
(-0.611731 0.0452193 0)
(-0.617734 0.00176043 0)
(-0.620842 -0.0428501 0)
(-0.620823 -0.0885958 0)
(-0.617407 -0.135421 0)
(-0.610282 -0.183218 0)
(-0.599105 -0.231817 0)
(-0.583513 -0.28097 0)
(-0.56313 -0.330334 0)
(-0.537596 -0.379457 0)
(-0.506588 -0.427748 0)
(-0.469854 -0.474439 0)
(-0.427263 -0.518467 0)
(-0.378865 -0.558235 0)
(-0.325003 -0.591119 0)
(-0.266482 -0.612603 0)
(-0.204858 -0.615093 0)
(-0.142791 -0.586812 0)
(-0.0846151 -0.511759 0)
(-0.0360926 -0.372037 0)
(-0.00576493 -0.152697 0)
(-0.00514443 0.146274 0)
(-0.0315268 0.352038 0)
(-0.0728247 0.480261 0)
(-0.121586 0.548397 0)
(-0.173192 0.575419 0)
(-0.224544 0.577024 0)
(-0.27399 0.563888 0)
(-0.320686 0.54229 0)
(-0.364246 0.515574 0)
(-0.404521 0.485448 0)
(-0.441492 0.452822 0)
(-0.475217 0.418241 0)
(-0.505805 0.382079 0)
(-0.533398 0.344605 0)
(-0.55816 0.306008 0)
(-0.580251 0.266404 0)
(-0.599815 0.225837 0)
(-0.616955 0.184293 0)
(-0.631717 0.14171 0)
(-0.644086 0.0979994 0)
(-0.653974 0.0530657 0)
(-0.66123 0.00682087 0)
(-0.665644 -0.0408005 0)
(-0.666949 -0.0898318 0)
(-0.664823 -0.140264 0)
(-0.658894 -0.192033 0)
(-0.648744 -0.245005 0)
(-0.633909 -0.298958 0)
(-0.613905 -0.353555 0)
(-0.588242 -0.408326 0)
(-0.556458 -0.462631 0)
(-0.51816 -0.515604 0)
(-0.473077 -0.566023 0)
(-0.421142 -0.612032 0)
(-0.362625 -0.650583 0)
(-0.298348 -0.676483 0)
(-0.230029 -0.681083 0)
(-0.160705 -0.6511 0)
(-0.0953796 -0.568627 0)
(-0.0407158 -0.413762 0)
(-0.00650136 -0.169952 0)
(-0.00564379 0.161038 0)
(-0.0345656 0.386826 0)
(-0.0797974 0.52675 0)
(-0.13309 0.600283 0)
(-0.189307 0.62854 0)
(-0.24499 0.628938 0)
(-0.298302 0.613297 0)
(-0.348324 0.588569 0)
(-0.394666 0.558457 0)
(-0.437213 0.524865 0)
(-0.476005 0.488813 0)
(-0.511169 0.450914 0)
(-0.54289 0.411588 0)
(-0.571393 0.371133 0)
(-0.596928 0.329749 0)
(-0.619745 0.287542 0)
(-0.640065 0.244523 0)
(-0.658059 0.200623 0)
(-0.673817 0.155712 0)
(-0.687341 0.109626 0)
(-0.698545 0.0621927 0)
(-0.707258 0.0132555 0)
(-0.71324 -0.0373159 0)
(-0.716185 -0.0896154 0)
(-0.715721 -0.143694 0)
(-0.711413 -0.199547 0)
(-0.702754 -0.257099 0)
(-0.689175 -0.316171 0)
(-0.670056 -0.376455 0)
(-0.64475 -0.437481 0)
(-0.612624 -0.498569 0)
(-0.573097 -0.558762 0)
(-0.525709 -0.616671 0)
(-0.470214 -0.670149 0)
(-0.406748 -0.715652 0)
(-0.336092 -0.747171 0)
(-0.260111 -0.754788 0)
(-0.182274 -0.723412 0)
(-0.108407 -0.632888 0)
(-0.0463235 -0.46102 0)
(-0.00739328 -0.189504 0)
(-0.00626803 0.177308 0)
(-0.0383016 0.425082 0)
(-0.0882299 0.577726 0)
(-0.146802 0.656961 0)
(-0.208251 0.686285 0)
(-0.268714 0.68504 0)
(-0.32617 0.666339 0)
(-0.379644 0.637893 0)
(-0.428771 0.603825 0)
(-0.473502 0.56626 0)
(-0.513957 0.526345 0)
(-0.550349 0.48477 0)
(-0.582958 0.442006 0)
(-0.612107 0.398388 0)
(-0.638156 0.354131 0)
(-0.661466 0.309328 0)
(-0.682368 0.263947 0)
(-0.701115 0.217843 0)
(-0.717855 0.170791 0)
(-0.732609 0.122526 0)
(-0.745285 0.0727795 0)
(-0.755685 0.0213094 0)
(-0.763533 -0.0320883 0)
(-0.768481 -0.0875773 0)
(-0.770112 -0.145281 0)
(-0.767927 -0.205274 0)
(-0.761329 -0.267561 0)
(-0.749629 -0.332041 0)
(-0.732049 -0.398462 0)
(-0.707759 -0.466377 0)
(-0.675909 -0.535091 0)
(-0.635686 -0.60357 0)
(-0.586377 -0.670261 0)
(-0.527478 -0.732706 0)
(-0.458889 -0.786796 0)
(-0.381258 -0.825546 0)
(-0.296535 -0.837482 0)
(-0.208653 -0.805297 0)
(-0.124458 -0.706112 0)
(-0.0532578 -0.515042 0)
(-0.00849471 -0.211867 0)
(-0.00704002 0.195419 0)
(-0.0428747 0.467504 0)
(-0.0984352 0.633991 0)
(-0.163203 0.719158 0)
(-0.230629 0.749217 0)
(-0.296385 0.745703 0)
(-0.358267 0.723206 0)
(-0.415281 0.690307 0)
(-0.467131 0.651605 0)
(-0.513875 0.609475 0)
(-0.555744 0.565196 0)
(-0.593063 0.51954 0)
(-0.626215 0.473036 0)
(-0.655643 0.426064 0)
(-0.68184 0.378865 0)
(-0.705316 0.331521 0)
(-0.726543 0.283941 0)
(-0.745892 0.235877 0)
(-0.763577 0.186971 0)
(-0.779639 0.136818 0)
(-0.793963 0.0850276 0)
(-0.80631 0.0312595 0)
(-0.816358 -0.0247693 0)
(-0.823718 -0.0832953 0)
(-0.827936 -0.144524 0)
(-0.828457 -0.20863 0)
(-0.824601 -0.275736 0)
(-0.815546 -0.345853 0)
(-0.800338 -0.418827 0)
(-0.777925 -0.494271 0)
(-0.747206 -0.571503 0)
(-0.707082 -0.649445 0)
(-0.656519 -0.726405 0)
(-0.594653 -0.799622 0)
(-0.521008 -0.86437 0)
(-0.43593 -0.912513 0)
(-0.341314 -0.930661 0)
(-0.241535 -0.898716 0)
(-0.14468 -0.79038 0)
(-0.0620485 -0.577501 0)
(-0.00989051 -0.237749 0)
(-0.00800333 0.215792 0)
(-0.048525 0.514964 0)
(-0.110904 0.696536 0)
(-0.182999 0.787754 0)
(-0.257282 0.817984 0)
(-0.328889 0.81132 0)
(-0.395449 0.784057 0)
(-0.456008 0.745785 0)
(-0.510411 0.701636 0)
(-0.558883 0.654254 0)
(-0.60181 0.605046 0)
(-0.639644 0.554857 0)
(-0.672882 0.504272 0)
(-0.702093 0.45374 0)
(-0.727937 0.40355 0)
(-0.751121 0.353781 0)
(-0.772315 0.304264 0)
(-0.792048 0.254608 0)
(-0.81062 0.204263 0)
(-0.828082 0.152632 0)
(-0.844264 0.0991669 0)
(-0.858855 0.0434172 0)
(-0.871471 -0.0149716 0)
(-0.881688 -0.0762991 0)
(-0.889031 -0.140854 0)
(-0.892921 -0.208938 0)
(-0.892604 -0.280832 0)
(-0.88712 -0.35672 0)
(-0.875315 -0.436594 0)
(-0.855883 -0.520173 0)
(-0.827434 -0.606831 0)
(-0.788539 -0.695486 0)
(-0.737782 -0.784371 0)
(-0.673822 -0.870479 0)
(-0.595616 -0.948469 0)
(-0.502932 -1.0089 0)
(-0.397322 -1.03603 0)
(-0.283454 -1.00616 0)
(-0.170866 -0.888515 0)
(-0.0735494 -0.650751 0)
(-0.0117206 -0.268162 0)
(-0.00922946 0.238979 0)
(-0.0556293 0.568591 0)
(-0.126371 0.76661 0)
(-0.207203 0.863808 0)
(-0.289369 0.89332 0)
(-0.367393 0.882271 0)
(-0.43879 0.848975 0)
(-0.502752 0.804186 0)
(-0.559374 0.753631 0)
(-0.609136 0.70022 0)
(-0.652631 0.645459 0)
(-0.690449 0.590231 0)
(-0.723184 0.53518 0)
(-0.751528 0.480853 0)
(-0.776342 0.427637 0)
(-0.798603 0.375632 0)
(-0.819266 0.324578 0)
(-0.839084 0.273871 0)
(-0.85847 0.222681 0)
(-0.877453 0.17013 0)
(-0.895755 0.115467 0)
(-0.912934 0.058131 0)
(-0.928516 -0.00227696 0)
(-0.94205 -0.066084 0)
(-0.953084 -0.13365 0)
(-0.961061 -0.205427 0)
(-0.96519 -0.281923 0)
(-0.96437 -0.363569 0)
(-0.957218 -0.450574 0)
(-0.94214 -0.542812 0)
(-0.917424 -0.639752 0)
(-0.8813 -0.740369 0)
(-0.831932 -0.84292 0)
(-0.767401 -0.944298 0)
(-0.685848 -1.03867 0)
(-0.586042 -1.11525 0)
(-0.468663 -1.15542 0)
(-0.338242 -1.1308 0)
(-0.205865 -1.00442 0)
(-0.0891793 -0.738219 0)
(-0.0142246 -0.304627 0)
(-0.0108338 0.265743 0)
(-0.0647734 0.629889 0)
(-0.145931 0.845811 0)
(-0.237266 0.9486 0)
(-0.328471 0.976014 0)
(-0.413416 0.958867 0)
(-0.489618 0.917887 0)
(-0.556588 0.865178 0)
(-0.614844 0.807117 0)
(-0.665253 0.746838 0)
(-0.708673 0.685864 0)
(-0.745821 0.62505 0)
(-0.777328 0.565073 0)
(-0.803968 0.506656 0)
(-0.826841 0.450377 0)
(-0.847306 0.396422 0)
(-0.866742 0.344418 0)
(-0.886238 0.293446 0)
(-0.906353 0.242249 0)
(-0.927042 0.189526 0)
(-0.947807 0.134258 0)
(-0.967976 0.0757879 0)
(-0.986933 0.0137466 0)
(-1.00422 -0.0521418 0)
(-1.01948 -0.122264 0)
(-1.03228 -0.197255 0)
(-1.04185 -0.277949 0)
(-1.04695 -0.365134 0)
(-1.04592 -0.459327 0)
(-1.03684 -0.560603 0)
(-1.01766 -0.668551 0)
(-0.986312 -0.782244 0)
(-0.940577 -0.900111 0)
(-0.877912 -1.01923 0)
(-0.795371 -1.13364 0)
(-0.690121 -1.23134 0)
(-0.561054 -1.2905 0)
(-0.411631 -1.2765 0)
(-0.254208 -1.14358 0)
(-0.11132 -0.845062 0)
(-0.0178209 -0.349533 0)
(-0.0130051 0.297179 0)
(-0.0768737 0.700912 0)
(-0.171216 0.936206 0)
(-0.275245 1.04365 0)
(-0.376723 1.06686 0)
(-0.468892 1.04124 0)
(-0.549499 0.990442 0)
(-0.618663 0.928135 0)
(-0.67759 0.861359 0)
(-0.727721 0.793375 0)
(-0.770249 0.725552 0)
(-0.805967 0.658573 0)
(-0.83539 0.593101 0)
(-0.85926 0.530171 0)
(-0.878959 0.470748 0)
(-0.896401 0.415237 0)
(-0.913623 0.363135 0)
(-0.932231 0.313045 0)