/*--------------------------------*- C++ -*----------------------------------*\
| =========                 |                                                 |
| \\      /  F ield         | OpenFOAM: The Open Source CFD Toolbox           |
|  \\    /   O peration     | Version:  4.1                                   |
|   \\  /    A nd           | Web:      www.OpenFOAM.org                      |
|    \\/     M anipulation  |                                                 |
\*---------------------------------------------------------------------------*/
FoamFile
{
    version     2.0;
    format      ascii;
    class       volVectorField;
    location    "8";
    object      U;
}
// * * * * * * * * * * * * * * * * * * * * * * * * * * * * * * * * * * * * * //

dimensions      [0 1 -1 0 0 0 0];

internalField   nonuniform List<vector> 
400
(
(0.000194607 -0.000191751 0)
(-9.8062e-05 8.58971e-05 0)
(-0.0015304 0.00032964 0)
(-0.00370141 0.000509066 0)
(-0.00637967 0.00059644 0)
(-0.0092322 0.000625581 0)
(-0.0120378 0.00060138 0)
(-0.0145571 0.000528035 0)
(-0.0165663 0.000399524 0)
(-0.0178331 0.000214024 0)
(-0.0181532 -2.21112e-05 0)
(-0.0173903 -0.000287208 0)
(-0.0155274 -0.00054422 0)
(-0.0127166 -0.000743102 0)
(-0.00928398 -0.000835114 0)
(-0.00572913 -0.000780796 0)
(-0.00259362 -0.000581887 0)
(-0.00042751 -0.000259076 0)
(0.00053864 6.80937e-05 0)
(0.000310836 0.000295987 0)
(-8.97933e-05 8.88027e-05 0)
(-0.00203399 0.00191265 0)
(-0.00638457 0.00360617 0)
(-0.0122515 0.00481749 0)
(-0.0191383 0.00543587 0)
(-0.0263246 0.00555088 0)
(-0.0332637 0.00520071 0)
(-0.0393765 0.00440455 0)
(-0.0441267 0.00316078 0)
(-0.0469975 0.00149888 0)
(-0.0475683 -0.000487189 0)
(-0.0455916 -0.00261182 0)
(-0.0410846 -0.0046002 0)
(-0.0344109 -0.00611839 0)
(-0.0262836 -0.00684727 0)
(-0.0177546 -0.00656229 0)
(-0.00996766 -0.00526279 0)
(-0.00408529 -0.00317317 0)
(-0.000634432 -0.00095214 0)
(0.000172561 0.000571056 0)
(-0.000413492 0.00165375 0)
(-0.00429371 0.00638856 0)
(-0.0115982 0.0103798 0)
(-0.0208626 0.0131196 0)
(-0.0313813 0.014463 0)
(-0.0421595 0.0145479 0)
(-0.0524292 0.0134497 0)
(-0.0613795 0.0112139 0)
(-0.0682675 0.0078744 0)
(-0.0723976 0.0035467 0)
(-0.0732185 -0.00150472 0)
(-0.0704128 -0.00682086 0)
(-0.0640031 -0.0117583 0)
(-0.0544521 -0.0155579 0)
(-0.0426754 -0.0174949 0)
(-0.0300573 -0.0170607 0)
(-0.0181491 -0.0142231 0)
(-0.00862412 -0.0094894 0)
(-0.00234126 -0.00420311 0)
(-1.75331e-05 -3.3286e-05 0)
(-0.000731017 0.00437599 0)
(-0.00651331 0.0132192 0)
(-0.0166514 0.020078 0)
(-0.0290466 0.0245565 0)
(-0.0427951 0.0266139 0)
(-0.0566856 0.0264783 0)
(-0.0698113 0.024279 0)
(-0.0812175 0.020098 0)
(-0.0900369 0.0140208 0)
(-0.0954576 0.00627097 0)
(-0.0968239 -0.00268856 0)
(-0.093724 -0.0120911 0)
(-0.0861024 -0.0208765 0)
(-0.0743875 -0.0277878 0)
(-0.0595407 -0.0315898 0)
(-0.0431505 -0.031364 0)
(-0.0271196 -0.026933 0)
(-0.0137062 -0.0190357 0)
(-0.00424619 -0.00972169 0)
(-0.00020987 -0.00153745 0)
(-0.00100194 0.00822655 0)
(-0.00850318 0.0223726 0)
(-0.0212324 0.0326516 0)
(-0.0364692 0.0390427 0)
(-0.0531219 0.0417738 0)
(-0.0698044 0.0412329 0)
(-0.085531 0.0376349 0)
(-0.0992708 0.0311083 0)
(-0.11009 0.0217924 0)
(-0.117095 0.0100136 0)
(-0.11952 -0.003578 0)
(-0.116803 -0.0179176 0)
(-0.108705 -0.0315164 0)
(-0.0954718 -0.042561 0)
(-0.0779548 -0.0491735 0)
(-0.0578352 -0.0498237 0)
(-0.0373553 -0.0439615 0)
(-0.0195143 -0.032404 0)
(-0.00635227 -0.0179074 0)
(-0.000387281 -0.00403362 0)
(-0.00123197 0.0130264 0)
(-0.0102093 0.0335205 0)
(-0.0251885 0.0477008 0)
(-0.0429004 0.0561463 0)
(-0.0620931 0.0595197 0)
(-0.0812511 0.0584543 0)
(-0.099362 0.0532923 0)
(-0.115377 0.0442157 0)
(-0.128347 0.0314024 0)
(-0.137325 0.0152422 0)
(-0.14143 -0.00348577 0)
(-0.139903 -0.0234817 0)
(-0.132215 -0.0428682 0)
(-0.11828 -0.0592475 0)
(-0.0986483 -0.0699555 0)
(-0.0749235 -0.072569 0)
(-0.0496131 -0.0657892 0)
(-0.0266018 -0.0501997 0)
(-0.0089301 -0.0292044 0)
(-0.000599963 -0.00763798 0)
(-0.00141158 0.0186267 0)
(-0.0115674 0.0463611 0)
(-0.0283654 0.0648665 0)
(-0.0480899 0.075508 0)
(-0.0693659 0.0795338 0)
(-0.0905974 0.0779098 0)
(-0.110792 0.0711521 0)
(-0.12894 0.059503 0)
(-0.144127 0.0431519 0)
(-0.155393 0.0224904 0)
(-0.161766 -0.00166587 0)
(-0.162271 -0.0278926 0)
(-0.156032 -0.0540206 0)
(-0.142488 -0.0770978 0)
(-0.121674 -0.093558 0)
(-0.0948415 -0.0997564 0)
(-0.0645409 -0.0931006 0)
(-0.0355697 -0.0733858 0)
(-0.0123024 -0.0444306 0)
(-0.000897063 -0.0126763 0)
(-0.00153587 0.0248208 0)
(-0.0125245 0.0604754 0)
(-0.0306221 0.0836366 0)
(-0.05178 0.0965923 0)
(-0.0745364 0.101308 0)
(-0.0972645 0.0991661 0)
(-0.119036 0.0909095 0)
(-0.138934 0.0768506 0)
(-0.15614 0.0571626 0)
(-0.169748 0.0321678 0)
(-0.178754 0.00260456 0)
(-0.18202 -0.0301309 0)
(-0.178325 -0.0637453 0)
(-0.166558 -0.0948627 0)
(-0.146025 -0.119002 0)
(-0.117256 -0.131007 0)
(-0.0824057 -0.126302 0)
(-0.0469437 -0.102985 0)
(-0.016834 -0.0646531 0)
(-0.00134543 -0.0196444 0)
(-0.00160192 0.0313959 0)
(-0.0130464 0.0754107 0)
(-0.0318519 0.103435 0)
(-0.0537455 0.118762 0)
(-0.0772064 0.124191 0)
(-0.100625 0.121601 0)
(-0.123176 0.112021 0)
(-0.144093 0.0958554 0)
(-0.162718 0.0732457 0)
(-0.178291 0.0443845 0)
(-0.189881 0.00982055 0)
(-0.196307 -0.0292523 0)
(-0.196105 -0.0706503 0)
(-0.187641 -0.110835 0)
(-0.169365 -0.144586 0)
(-0.140693 -0.165126 0)
(-0.10274 -0.165192 0)
(-0.0609753 -0.139874 0)
(-0.0228904 -0.0911631 0)
(-0.00202726 -0.0292603 0)
(-0.001618 0.0381142 0)
(-0.0131583 0.0906511 0)
(-0.0320522 0.123575 0)
(-0.0538895 0.141214 0)
(-0.0771084 0.147304 0)
(-0.100168 0.1443 0)
(-0.122382 0.133588 0)
(-0.143191 0.1157 0)
(-0.162173 0.090754 0)
(-0.178807 0.0587806 0)
(-0.192375 0.020054 0)
(-0.20182 -0.0245986 0)
(-0.205637 -0.0733727 0)
(-0.201833 -0.122951 0)
(-0.188052 -0.167799 0)
(-0.162315 -0.199752 0)
(-0.123994 -0.208405 0)
(-0.0773946 -0.184275 0)
(-0.0308048 -0.12525 0)
(-0.0030567 -0.0424593 0)
(-0.0016203 0.0448171 0)
(-0.012991 0.105757 0)
(-0.0313921 0.143388 0)
(-0.0523362 0.163071 0)
(-0.0742298 0.169608 0)
(-0.0956691 0.166102 0)
(-0.116149 0.154384 0)
(-0.135381 0.135155 0)
(-0.153237 0.108548 0)
(-0.16953 0.0744341 0)
(-0.183881 0.0327762 0)
(-0.195545 -0.0160811 0)
(-0.203227 -0.0709591 0)
(-0.204874 -0.129205 0)
(-0.197594 -0.185617 0)
(-0.178026 -0.231349 0)
(-0.143301 -0.252987 0)
(-0.0950729 -0.235132 0)
(-0.0407766 -0.167843 0)
(-0.00459248 -0.0604057 0)
(-0.00167725 0.0513814 0)
(-0.0128492 0.120301 0)
(-0.0303257 0.162153 0)
(-0.04957 0.183322 0)
(-0.0689679 0.189864 0)
(-0.0873729 0.185596 0)
(-0.104521 0.172879 0)
(-0.120466 0.152635 0)
(-0.135426 0.125056 0)
(-0.14961 0.0898911 0)
(-0.163068 0.046808 0)
(-0.175513 -0.0043675 0)
(-0.186102 -0.063237 0)
(-0.19308 -0.128201 0)
(-0.193508 -0.195124 0)
(-0.183023 -0.25562 0)
(-0.156542 -0.294281 0)
(-0.111696 -0.289429 0)
(-0.0526657 -0.218898 0)
(-0.00684663 -0.0844242 0)
(-0.00194942 0.0581322 0)
(-0.0132721 0.13435 0)
(-0.0296014 0.179494 0)
(-0.0464055 0.201107 0)
(-0.0620741 0.206843 0)
(-0.0759298 0.201285 0)
(-0.0880336 0.187401 0)
(-0.0988751 0.166353 0)
(-0.109049 0.13843 0)
(-0.119186 0.1033 0)
(-0.129792 0.0603941 0)
(-0.141105 0.00906719 0)
(-0.152907 -0.051075 0)
(-0.164061 -0.119695 0)
(-0.172176 -0.194344 0)
(-0.172599 -0.268427 0)
(-0.158779 -0.326449 0)
(-0.123584 -0.341846 0)
(-0.0656222 -0.276633 0)
(-0.0100679 -0.115871 0)
(-0.00268639 0.0653341 0)
(-0.0152399 0.14779 0)
(-0.0305128 0.194765 0)
(-0.0441916 0.215236 0)
(-0.0547359 0.219003 0)
(-0.0623478 0.211422 0)
(-0.0675388 0.196098 0)
(-0.0713642 0.174394 0)
(-0.0748044 0.146697 0)
(-0.0789046 0.112626 0)
(-0.0845918 0.0714451 0)
(-0.0926108 0.0221572 0)
(-0.103426 -0.0362895 0)
(-0.116718 -0.104771 0)
(-0.131191 -0.182811 0)
(-0.142753 -0.266757 0)
(-0.144815 -0.343467 0)
(-0.12576 -0.384921 0)
(-0.0775746 -0.336636 0)
(-0.0144617 -0.155637 0)
(-0.00443534 0.0752562 0)
(-0.0200353 0.162319 0)
(-0.0343139 0.208479 0)
(-0.0439256 0.225046 0)
(-0.0475338 0.224974 0)
(-0.0468718 0.214258 0)
(-0.0430381 0.197051 0)
(-0.0378043 0.174766 0)
(-0.03252 0.147803 0)
(-0.0286051 0.115717 0)
(-0.0273329 0.0776662 0)
(-0.0298758 0.0324413 0)
(-0.0373355 -0.0214326 0)
(-0.0502421 -0.0857493 0)
(-0.0687464 -0.16185 0)
(-0.0900569 -0.249589 0)
(-0.109384 -0.340484 0)
(-0.112005 -0.410112 0)
(-0.0845164 -0.391511 0)
(-0.0199804 -0.203725 0)
(-0.0080488 0.0881138 0)
(-0.0302491 0.177001 0)
(-0.0429443 0.218581 0)
(-0.0464129 0.227822 0)
(-0.0398337 0.221893 0)
(-0.0277635 0.207092 0)
(-0.0120072 0.187817 0)
(0.00479435 0.165263 0)
(0.0210071 0.139695 0)
(0.0349266 0.110569 0)
(0.0450552 0.0769756 0)
(0.0499203 0.0376444 0)
(0.0479163 -0.00905377 0)
(0.0377878 -0.0653643 0)
(0.0178839 -0.133887 0)
(-0.0106935 -0.217657 0)
(-0.0467193 -0.314284 0)
(-0.0746541 -0.408405 0)
(-0.0797728 -0.429917 0)
(-0.0257501 -0.256908 0)
(-0.0146536 0.114306 0)
(-0.0454749 0.19739 0)
(-0.0521981 0.226255 0)
(-0.0441777 0.221735 0)
(-0.0218797 0.206773 0)
(0.00595946 0.186762 0)
(0.0370288 0.165428 0)
(0.067895 0.143239 0)
(0.0968676 0.120022 0)
(0.122153 0.0950386 0)
(0.142218 0.0673173 0)
(0.155475 0.0356399 0)
(0.160032 -0.00155631 0)
(0.154136 -0.0464879 0)
(0.134914 -0.102273 0)
(0.101771 -0.173923 0)
(0.0512866 -0.26502 0)
(-0.0030165 -0.37328 0)
(-0.0519373 -0.438846 0)
(-0.028529 -0.309745 0)
(-0.0256283 0.141943 0)
(-0.065721 0.20911 0)
(-0.0483259 0.216482 0)
(-0.0151682 0.195108 0)
(0.0332823 0.171391 0)
(0.0829316 0.14804 0)
(0.132462 0.12676 0)
(0.178521 0.107022 0)
(0.220058 0.0880492 0)
(0.255719 0.0689434 0)
(0.28433 0.0487393 0)
(0.304505 0.0264078 0)
(0.314417 0.000664091 0)
(0.312085 -0.0302223 0)
(0.293997 -0.0690717 0)
(0.25808 -0.120897 0)
(0.196559 -0.193108 0)
(0.118392 -0.296321 0)
(0.0176112 -0.39535 0)
(-0.0172057 -0.338885 0)
(-0.01873 0.214659 0)
(-0.0197737 0.21536 0)
(0.0565745 0.181488 0)
(0.128483 0.140196 0)
(0.205171 0.110288 0)
(0.273171 0.0880415 0)
(0.334592 0.0708381 0)
(0.388044 0.0569565 0)
(0.433885 0.0449657 0)
(0.471856 0.0338954 0)
(0.501557 0.0229202 0)
(0.522191 0.011332 0)
(0.532445 -0.00170058 0)
(0.530557 -0.0171595 0)
(0.513358 -0.0370429 0)
(0.477867 -0.0647637 0)
(0.414366 -0.108549 0)
(0.323779 -0.186705 0)
(0.173079 -0.296542 0)
(0.0429554 -0.335024 0)
(0.211351 0.129567 0)
(0.297338 0.100957 0)
(0.451239 0.0674622 0)
(0.543307 0.0442913 0)
(0.617994 0.0290519 0)
(0.673794 0.019816 0)
(0.717634 0.013822 0)
(0.752166 0.00978948 0)
(0.779372 0.00682629 0)
(0.800252 0.00443666 0)
(0.815237 0.00228946 0)
(0.82427 0.000164889 0)
(0.826847 -0.00215907 0)
(0.821962 -0.00487033 0)
(0.807734 -0.00851447 0)
(0.781181 -0.0136879 0)
(0.734271 -0.0229006 0)
(0.658583 -0.0407322 0)
(0.498154 -0.0743729 0)
(0.288345 -0.136219 0)
)
;

boundaryField
{
    movingWall
    {
        type            fixedValue;
        value           uniform (1 0 0);
    }
    fixedWalls
    {
        type            noSlip;
    }
    frontAndBack
    {
        type            empty;
    }
}


// ************************************************************************* //
