/*--------------------------------*- C++ -*----------------------------------*\
| =========                 |                                                 |
| \\      /  F ield         | OpenFOAM: The Open Source CFD Toolbox           |
|  \\    /   O peration     | Version:  4.1                                   |
|   \\  /    A nd           | Web:      www.OpenFOAM.org                      |
|    \\/     M anipulation  |                                                 |
\*---------------------------------------------------------------------------*/
FoamFile
{
    version     2.0;
    format      ascii;
    class       volVectorField;
    location    "0.189";
    object      U;
}
// * * * * * * * * * * * * * * * * * * * * * * * * * * * * * * * * * * * * * //

dimensions      [0 1 -1 0 0 0 0];

internalField   nonuniform List<vector> 
1600
(
(1.4639e-05 -1.62051e-05 0)
(1.27435e-05 3.4718e-05 0)
(-8.53891e-05 0.000127627 0)
(-0.000301814 0.000235128 0)
(-0.00063989 0.000340989 0)
(-0.00109043 0.000435939 0)
(-0.0016372 0.000514785 0)
(-0.00226019 0.000574889 0)
(-0.00293769 0.000615234 0)
(-0.00364763 0.000635848 0)
(-0.0043685 0.000637437 0)
(-0.00507991 0.000621143 0)
(-0.00576292 0.000588388 0)
(-0.00640033 0.000540773 0)
(-0.00697678 0.000480018 0)
(-0.00747886 0.000407921 0)
(-0.00789522 0.000326337 0)
(-0.00821654 0.000237179 0)
(-0.00843564 0.000142405 0)
(-0.00854751 4.40346e-05 0)
(-0.00854936 -5.58582e-05 0)
(-0.0084407 -0.000155137 0)
(-0.00822335 -0.000251607 0)
(-0.00790154 -0.000343028 0)
(-0.00748195 -0.000427126 0)
(-0.0069737 -0.000501626 0)
(-0.00638838 -0.000564285 0)
(-0.00573996 -0.000612944 0)
(-0.00504474 -0.000645591 0)
(-0.00432112 -0.000660438 0)
(-0.00358934 -0.000656023 0)
(-0.00287113 -0.000631334 0)
(-0.00218915 -0.000585976 0)
(-0.00156625 -0.000520407 0)
(-0.00102442 -0.000436279 0)
(-0.00058333 -0.000336957 0)
(-0.000258133 -0.000228372 0)
(-5.62904e-05 -0.000120395 0)
(2.77563e-05 -2.9431e-05 0)
(1.82192e-05 1.83479e-05 0)
(-3.87112e-05 -1.69262e-05 0)
(-0.000223565 0.000212889 0)
(-0.000652633 0.000599147 0)
(-0.00137302 0.00103887 0)
(-0.0023926 0.0014703 0)
(-0.00369014 0.00185691 0)
(-0.00522685 0.0021778 0)
(-0.00695353 0.00242206 0)
(-0.00881568 0.00258532 0)
(-0.010757 0.00266744 0)
(-0.0127218 0.00267115 0)
(-0.0146566 0.00260099 0)
(-0.0165116 0.00246274 0)
(-0.0182409 0.00226294 0)
(-0.0198034 0.00200869 0)
(-0.0211633 0.00170742 0)
(-0.0222901 0.00136683 0)
(-0.0231587 0.000994875 0)
(-0.02375 0.000599695 0)
(-0.0240505 0.000189676 0)
(-0.024053 -0.000226566 0)
(-0.0237564 -0.000640176 0)
(-0.0231658 -0.00104208 0)
(-0.0222928 -0.00142301 0)
(-0.0211557 -0.00177359 0)
(-0.019779 -0.00208446 0)
(-0.0181938 -0.00234641 0)
(-0.0164374 -0.00255057 0)
(-0.0145531 -0.00268872 0)
(-0.0125894 -0.00275355 0)
(-0.0105993 -0.00273913 0)
(-0.0086392 -0.00264138 0)
(-0.00676753 -0.0024588 0)
(-0.00504235 -0.00219337 0)
(-0.00351882 -0.00185192 0)
(-0.00224531 -0.00144816 0)
(-0.00125824 -0.00100585 0)
(-0.000574924 -0.000563922 0)
(-0.000182469 -0.000185266 0)
(-2.85454e-05 2.86865e-05 0)
(-0.00013469 7.78845e-05 0)
(-0.00062051 0.000634943 0)
(-0.00147732 0.00143933 0)
(-0.00275697 0.00232491 0)
(-0.0044656 0.00318504 0)
(-0.00657173 0.00395321 0)
(-0.00901968 0.00458964 0)
(-0.0117386 0.0050727 0)
(-0.014649 0.00539304 0)
(-0.0176685 0.00554973 0)
(-0.0207143 0.00554755 0)
(-0.0237068 0.00539518 0)
(-0.026571 0.00510391 0)
(-0.0292378 0.00468682 0)
(-0.0316452 0.0041582 0)
(-0.0337386 0.00353319 0)
(-0.0354718 0.00282754 0)
(-0.0368067 0.00205757 0)
(-0.0377142 0.00124006 0)
(-0.0381741 0.000392276 0)
(-0.0381756 -0.000468048 0)
(-0.0377171 -0.0013227 0)
(-0.0368068 -0.00215305 0)
(-0.0354627 -0.00294014 0)
(-0.0337125 -0.00366483 0)
(-0.0315936 -0.00430806 0)
(-0.0291533 -0.00485115 0)
(-0.0264481 -0.00527623 0)
(-0.0235428 -0.00556679 0)
(-0.0205103 -0.00570833 0)
(-0.0174298 -0.00568921 0)
(-0.014385 -0.00550167 0)
(-0.0114621 -0.00514321 0)
(-0.00874622 -0.00461836 0)
(-0.00631761 -0.00394115 0)
(-0.00424622 -0.00313863 0)
(-0.00258463 -0.00225613 0)
(-0.00135915 -0.00136502 0)
(-0.000556829 -0.000574918 0)
(-0.000118362 -5.14844e-05 0)
(-0.000249341 0.000292268 0)
(-0.00108816 0.00135526 0)
(-0.00242055 0.00271292 0)
(-0.00428944 0.00415413 0)
(-0.00669112 0.00553465 0)
(-0.00958114 0.00675985 0)
(-0.012888 0.00777078 0)
(-0.0165223 0.00853408 0)
(-0.0203847 0.00903461 0)
(-0.0243713 0.00927019 0)
(-0.028378 0.00924774 0)
(-0.0323041 0.0089806 0)
(-0.0360542 0.00848659 0)
(-0.0395405 0.00778661 0)
(-0.0426838 0.00690375 0)
(-0.0454145 0.00586268 0)
(-0.0476733 0.00468921 0)
(-0.0494118 0.00341012 0)
(-0.0505926 0.00205307 0)
(-0.0511902 0.000646505 0)
(-0.0511907 -0.00078035 0)
(-0.0505924 -0.00219752 0)
(-0.0494061 -0.00357439 0)
(-0.0476546 -0.00487987 0)
(-0.0453738 -0.00608265 0)
(-0.0426115 -0.00715164 0)
(-0.0394281 -0.00805647 0)
(-0.0358953 -0.00876823 0)
(-0.0320957 -0.00926032 0)
(-0.0281215 -0.0095096 0)
(-0.0240729 -0.00949768 0)
(-0.0200556 -0.00921261 0)
(-0.0161778 -0.00865096 0)
(-0.0125465 -0.00782049 0)
(-0.00926266 -0.0067436 0)
(-0.00641458 -0.00546214 0)
(-0.00407046 -0.00404386 0)
(-0.00226884 -0.00259143 0)
(-0.00100531 -0.00125482 0)
(-0.000227645 -0.000247001 0)
(-0.000369835 0.000635453 0)
(-0.00157864 0.00239886 0)
(-0.00340394 0.00445399 0)
(-0.00587274 0.00656085 0)
(-0.00896528 0.00854696 0)
(-0.0126205 0.0102943 0)
(-0.0167499 0.0117268 0)
(-0.0212467 0.0128001 0)
(-0.0259934 0.0134936 0)
(-0.030868 0.0138039 0)
(-0.0357486 0.0137405 0)
(-0.040517 0.013322 0)
(-0.0450615 0.0125737 0)
(-0.0492788 0.0115256 0)
(-0.053076 0.0102108 0)
(-0.0563712 0.00866516 0)
(-0.0590947 0.00692627 0)
(-0.0611895 0.00503323 0)
(-0.0626119 0.00302648 0)
(-0.0633318 0.00094763 0)
(-0.063333 -0.00116054 0)
(-0.0626137 -0.00325421 0)
(-0.0611864 -0.00528869 0)
(-0.0590783 -0.00721862 0)
(-0.0563313 -0.00899847 0)
(-0.0530017 -0.0105831 0)
(-0.0491602 -0.0119284 0)
(-0.0448908 -0.0129927 0)
(-0.0402904 -0.0137378 0)
(-0.0354668 -0.0141305 0)
(-0.0305373 -0.0141445 0)
(-0.0256256 -0.0137632 0)
(-0.0208586 -0.0129818 0)
(-0.0163622 -0.0118112 0)
(-0.0122558 -0.0102825 0)
(-0.00864566 -0.00845173 0)
(-0.00561715 -0.00640779 0)
(-0.00322496 -0.00428063 0)
(-0.0014797 -0.00225226 0)
(-0.000343494 -0.000567948 0)
(-0.000489988 0.00110794 0)
(-0.00206816 0.00377131 0)
(-0.00438657 0.00667322 0)
(-0.00745361 0.00955695 0)
(-0.0112297 0.0122307 0)
(-0.0156343 0.0145587 0)
(-0.0205598 0.0164515 0)
(-0.0258817 0.0178556 0)
(-0.0314652 0.0187463 0)
(-0.0371719 0.01912 0)
(-0.0428641 0.0189896 0)
(-0.0484089 0.0183799 0)
(-0.0536807 0.0173246 0)
(-0.0585639 0.0158638 0)
(-0.0629542 0.0140422 0)
(-0.0667599 0.011908 0)
(-0.0699029 0.00951203 0)
(-0.0723196 0.00690731 0)
(-0.0739609 0.00414861 0)
(-0.0747932 0.00129238 0)
(-0.0747984 -0.00160339 0)
(-0.0739743 -0.00447932 0)
(-0.0723349 -0.00727489 0)
(-0.0699104 -0.00992875 0)
(-0.0667475 -0.0123794 0)
(-0.0629089 -0.0145657 0)
(-0.0584735 -0.0164286 0)
(-0.0535351 -0.0179116 0)
(-0.0482019 -0.0189634 0)
(-0.0425948 -0.0195394 0)
(-0.0368453 -0.0196046 0)
(-0.0310926 -0.0191362 0)
(-0.0254803 -0.0181274 0)
(-0.0201516 -0.0165915 0)
(-0.015244 -0.0145668 0)
(-0.0108828 -0.0121224 0)
(-0.00717229 -0.0093651 0)
(-0.00418691 -0.00644737 0)
(-0.00195628 -0.00357539 0)
(-0.000459705 -0.00101574 0)
(-0.000607178 0.00170648 0)
(-0.00254642 0.00546894 0)
(-0.00534993 0.00936923 0)
(-0.0090071 0.0131423 0)
(-0.0134568 0.0165845 0)
(-0.0185964 0.0195483 0)
(-0.0242982 0.0219345 0)
(-0.0304184 0.0236841 0)
(-0.0368052 0.02477 0)
(-0.0433043 0.0251904 0)
(-0.0497638 0.0249626 0)
(-0.0560374 0.0241191 0)
(-0.0619881 0.0227031 0)
(-0.0674896 0.020766 0)
(-0.0724285 0.0183652 0)
(-0.0767051 0.0155626 0)
(-0.080235 0.0124235 0)
(-0.0829488 0.00901594 0)
(-0.0847936 0.00541042 0)
(-0.0857327 0.00167948 0)
(-0.0857465 -0.00210237 0)
(-0.0848324 -0.00585885 0)
(-0.083005 -0.00951221 0)
(-0.0802967 -0.0129837 0)
(-0.0767576 -0.0161943 0)
(-0.0724552 -0.0190658 0)
(-0.0674746 -0.021522 0)
(-0.0619174 -0.0234906 0)
(-0.0559009 -0.0249055 0)
(-0.049557 -0.0257092 0)
(-0.0430294 -0.0258563 0)
(-0.0364714 -0.0253165 0)
(-0.030042 -0.0240797 0)
(-0.0239017 -0.0221596 0)
(-0.0182066 -0.0196001 0)
(-0.0131019 -0.0164805 0)
(-0.00871337 -0.0129222 0)
(-0.00513759 -0.00909517 0)
(-0.00242536 -0.0052236 0)
(-0.000573781 -0.0015882 0)
(-0.000720747 0.00242667 0)
(-0.0030107 0.00748428 0)
(-0.00628865 0.012535 0)
(-0.0105256 0.017311 0)
(-0.0156382 0.0216023 0)
(-0.0215005 0.0252549 0)
(-0.027963 0.0281648 0)
(-0.0348621 0.0302703 0)
(-0.0420282 0.0315451 0)
(-0.0492913 0.0319911 0)
(-0.056486 0.0316323 0)
(-0.063454 0.0305103 0)
(-0.070048 0.0286791 0)
(-0.0761328 0.0262029 0)
(-0.0815875 0.0231528 0)
(-0.0863062 0.0196056 0)
(-0.0901991 0.0156421 0)
(-0.0931928 0.0113465 0)
(-0.0952311 0.00680578 0)
(-0.096275 0.00210964 0)
(-0.0963034 -0.00264994 0)
(-0.0953129 -0.00737879 0)
(-0.0933186 -0.0119809 0)
(-0.090354 -0.0163591 0)
(-0.0864712 -0.0204156 0)
(-0.0817411 -0.0240536 0)
(-0.0762534 -0.0271786 0)
(-0.0701155 -0.029701 0)
(-0.0634523 -0.0315381 0)
(-0.0564049 -0.032618 0)
(-0.049128 -0.0328828 0)
(-0.0417881 -0.0322931 0)
(-0.0345594 -0.0308329 0)
(-0.0276195 -0.0285145 0)
(-0.0211441 -0.0253844 0)
(-0.0153001 -0.021529 0)
(-0.0102366 -0.0170808 0)
(-0.00607389 -0.0122231 0)
(-0.0028853 -0.00719324 0)
(-0.000685324 -0.00228222 0)
(-0.000831076 0.00326426 0)
(-0.00346235 0.00980939 0)
(-0.00720473 0.016162 0)
(-0.0120118 0.0220547 0)
(-0.0177776 0.0272761 0)
(-0.0243523 0.03167 0)
(-0.0315634 0.0351315 0)
(-0.0392266 0.0376006 0)
(-0.047154 0.0390547 0)
(-0.0551601 0.0395022 0)
(-0.0630659 0.0389763 0)
(-0.0707023 0.0375292 0)
(-0.0779125 0.0352279 0)
(-0.084554 0.0321504 0)
(-0.0904996 0.0283831 0)
(-0.0956384 0.0240184 0)
(-0.0998767 0.0191536 0)
(-0.103138 0.0138897 0)
(-0.105364 0.00833126 0)
(-0.106513 0.00258544 0)
(-0.106563 -0.00323758 0)
(-0.10551 -0.00902509 0)
(-0.103368 -0.0146621 0)
(-0.100171 -0.0200321 0)
(-0.0959732 -0.0250178 0)
(-0.0908461 -0.0295025 0)
(-0.0848826 -0.0333723 0)
(-0.0781948 -0.0365184 0)
(-0.0709135 -0.0388401 0)
(-0.0631876 -0.0402487 0)
(-0.055182 -0.0406719 0)
(-0.0470756 -0.0400586 0)
(-0.0390577 -0.0383843 0)
(-0.0313241 -0.0356568 0)
(-0.0240708 -0.0319223 0)
(-0.0174878 -0.0272709 0)
(-0.0117492 -0.0218425 0)
(-0.00700084 -0.0158299 0)
(-0.00333897 -0.00948108 0)
(-0.000795078 -0.00309524 0)
(-0.000939055 0.00421595 0)
(-0.00390475 0.0124376 0)
(-0.008104 0.0202426 0)
(-0.0134736 0.0273661 0)
(-0.0198851 0.0335982 0)
(-0.0271641 0.038785 0)
(-0.0351143 0.0428249 0)
(-0.0435299 0.045663 0)
(-0.0522044 0.0472843 0)
(-0.0609363 0.0477068 0)
(-0.0695337 0.0469753 0)
(-0.077817 0.0451553 0)
(-0.0856212 0.0423284 0)
(-0.0927971 0.0385882 0)
(-0.0992129 0.0340374 0)
(-0.104754 0.0287853 0)
(-0.109324 0.0229464 0)
(-0.112843 0.016639 0)
(-0.115252 0.00998546 0)
(-0.116509 0.00311103 0)
(-0.116589 -0.0038557 0)
(-0.115487 -0.0107832 0)
(-0.113217 -0.017537 0)
(-0.109811 -0.0239808 0)
(-0.105324 -0.0299769 0)
(-0.0998284 -0.035388 0)
(-0.0934178 -0.0400792 0)
(-0.0862073 -0.0439211 0)
(-0.0783325 -0.046793 0)
(-0.0699488 -0.0485873 0)
(-0.0612305 -0.0492145 0)
(-0.0523686 -0.0486087 0)
(-0.0435675 -0.0467339 0)
(-0.0350414 -0.0435899 0)
(-0.0270083 -0.0392189 0)
(-0.0196826 -0.0337113 0)
(-0.0132648 -0.0272107 0)
(-0.00792781 -0.0199169 0)
(-0.00379156 -0.0120863 0)
(-0.000904384 -0.00402607 0)
(-0.0010458 0.00527961 0)
(-0.00434218 0.0153646 0)
(-0.00899406 0.0247715 0)
(-0.0149217 0.0332394 0)
(-0.0219739 0.0405627 0)
(-0.0299512 0.046593 0)
(-0.0386328 0.0512362 0)
(-0.0477908 0.0544465 0)
(-0.0571995 0.0562204 0)
(-0.0666415 0.0565889 0)
(-0.0759123 0.0556113 0)
(-0.0848224 0.0533693 0)
(-0.0931994 0.049961 0)
(-0.100889 0.0454975 0)
(-0.107755 0.040099 0)
(-0.113682 0.0338926 0)
(-0.118569 0.0270105 0)
(-0.122339 0.0195891 0)
(-0.124929 0.0117684 0)
(-0.126295 0.00369186 0)
(-0.126414 -0.00449349 0)
(-0.125278 -0.0126372 0)
(-0.122899 -0.0205856 0)
(-0.119309 -0.0281821 0)
(-0.11456 -0.035268 0)
(-0.108724 -0.0416846 0)
(-0.101895 -0.047275 0)
(-0.0941896 -0.0518874 0)
(-0.0857456 -0.0553788 0)
(-0.0767244 -0.0576203 0)
(-0.0673085 -0.0585021 0)
(-0.0577004 -0.0579403 0)
(-0.0481199 -0.0558834 0)
(-0.0388001 -0.0523192 0)
(-0.0299819 -0.047282 0)
(-0.0219056 -0.0408585 0)
(-0.0148 -0.033193 0)
(-0.0088663 -0.0244895 0)
(-0.00424937 -0.0150117 0)
(-0.00101486 -0.00507522 0)
(-0.00115247 0.00645439 0)
(-0.00477919 0.0185883 0)
(-0.00988301 0.0297461 0)
(-0.0163675 0.0396712 0)
(-0.024058 0.0481649 0)
(-0.0327294 0.0550877 0)
(-0.0421357 0.0603568 0)
(-0.0520262 0.0639401 0)
(-0.0621558 0.065849 0)
(-0.0722913 0.0661317 0)
(-0.0822159 0.0648656 0)
(-0.0917309 0.0621509 0)
(-0.100658 0.0581052 0)
(-0.108838 0.0528585 0)
(-0.116134 0.04655 0)
(-0.122427 0.0393256 0)
(-0.127618 0.0313357 0)
(-0.131628 0.0227347 0)
(-0.134395 0.0136805 0)
(-0.135875 0.00433434 0)
(-0.136041 -0.00513875 0)
(-0.134887 -0.0145698 0)
(-0.132421 -0.0237859 0)
(-0.128673 -0.0326103 0)
(-0.123691 -0.0408634 0)
(-0.117547 -0.0483642 0)
(-0.110332 -0.0549325 0)
(-0.102161 -0.0603925 0)
(-0.0931753 -0.064577 0)
(-0.0835394 -0.0673323 0)
(-0.073443 -0.0685254 0)
(-0.0630994 -0.0680499 0)
(-0.0527434 -0.0658348 0)
(-0.0426278 -0.0618514 0)
(-0.033017 -0.0561216 0)
(-0.0241789 -0.0487244 0)
(-0.0163723 -0.039801 0)
(-0.00982849 -0.0295574 0)
(-0.00471908 -0.0182636 0)
(-0.0011282 -0.00624506 0)
(-0.00126024 0.00774071 0)
(-0.00522025 0.0221094 0)
(-0.0107789 0.0351666 0)
(-0.0178221 0.0466608 0)
(-0.026151 0.0564022 0)
(-0.0355135 0.0642638 0)
(-0.0456377 0.0701782 0)
(-0.0562495 0.0741312 0)
(-0.0670843 0.076154 0)
(-0.0778934 0.0763159 0)
(-0.0884481 0.0747161 0)
(-0.0985418 0.0714767 0)
(-0.107991 0.0667369 0)
(-0.116634 0.0606481 0)
(-0.124333 0.0533699 0)
(-0.13097 0.0450674 0)
(-0.136447 0.0359099 0)
(-0.140685 0.0260697 0)
(-0.143624 0.0157221 0)
(-0.145218 0.0050455 0)
(-0.145442 -0.00577771 0)
(-0.144286 -0.0165608 0)
(-0.141757 -0.0271124 0)
(-0.13788 -0.0372359 0)
(-0.1327 -0.0467306 0)
(-0.126284 -0.055393 0)
(-0.11872 -0.0630188 0)
(-0.110121 -0.0694063 0)
(-0.100628 -0.0743613 0)
(-0.0904057 -0.0777031 0)
(-0.079651 -0.0792706 0)
(-0.0685866 -0.0789312 0)
(-0.0574619 -0.076589 0)
(-0.0465492 -0.0721938 0)
(-0.0361375 -0.0657501 0)
(-0.0265238 -0.0573241 0)
(-0.0179988 -0.0470506 0)
(-0.0108265 -0.035135 0)
(-0.00520733 -0.0218525 0)
(-0.00124611 -0.0075398 0)
(-0.00137022 0.00914017 0)
(-0.00566965 0.025931 0)
(-0.0116894 0.0410359 0)
(-0.019296 0.0542094 0)
(-0.0282651 0.065273 0)
(-0.0383161 0.0741158 0)
(-0.0491501 0.0806902 0)
(-0.0604694 0.0850048 0)
(-0.0719894 0.0871155 0)
(-0.0834464 0.0871173 0)
(-0.0946009 0.0851352 0)
(-0.10524 0.0813169 0)
(-0.115176 0.0758262 0)
(-0.124247 0.0688377 0)
(-0.132316 0.0605327 0)
(-0.139267 0.0510966 0)
(-0.145005 0.0407176 0)
(-0.149455 0.0295854 0)
(-0.152555 0.0178922 0)
(-0.154264 0.00583253 0)
(-0.154555 -0.00639504 0)
(-0.153415 -0.0185872 0)
(-0.150849 -0.030535 0)
(-0.146877 -0.0420231 0)
(-0.141539 -0.0528301 0)
(-0.134895 -0.0627297 0)
(-0.127029 -0.0714924 0)
(-0.118048 -0.0788895 0)
(-0.108089 -0.0846974 0)
(-0.0973188 -0.0887042 0)
(-0.0859364 -0.0907173 0)
(-0.074173 -0.0905724 0)
(-0.0622915 -0.0881432 0)
(-0.0505837 -0.0833521 0)
(-0.0393639 -0.0761799 0)
(-0.0289596 -0.0666753 0)
(-0.0196958 -0.0549617 0)
(-0.0118718 -0.0412409 0)
(-0.00572051 -0.0257926 0)
(-0.00137025 -0.00896544 0)
(-0.00148349 0.0106555 0)
(-0.00613153 0.0300584 0)
(-0.0126217 0.0473597 0)
(-0.0207992 0.0623204 0)
(-0.0304112 0.0747764 0)
(-0.0411475 0.084637 0)
(-0.0526808 0.0918798 0)
(-0.0646888 0.0965412 0)
(-0.0768674 0.0987075 0)
(-0.0889384 0.0985044 0)
(-0.100653 0.0960875 0)
(-0.111793 0.0916338 0)
(-0.122169 0.0853348 0)
(-0.131622 0.0773903 0)
(-0.140018 0.068005 0)
(-0.147244 0.0573852 0)
(-0.153212 0.0457377 0)
(-0.157847 0.0332693 0)
(-0.161096 0.0201877 0)
(-0.162917 0.00670232 0)
(-0.163281 -0.00697374 0)
(-0.162177 -0.0206223 0)
(-0.159603 -0.0340184 0)
(-0.155576 -0.0469291 0)
(-0.150127 -0.0591133 0)
(-0.143309 -0.0703221 0)
(-0.135197 -0.0803006 0)
(-0.125892 -0.0887913 0)
(-0.115523 -0.0955386 0)
(-0.104255 -0.100296 0)
(-0.0922874 -0.102835 0)
(-0.079857 -0.102954 0)
(-0.0672391 -0.100489 0)
(-0.0547441 -0.0953282 0)
(-0.0427121 -0.0874228 0)
(-0.0315027 -0.0767967 0)
(-0.0214776 -0.0635568 0)
(-0.0129752 -0.0478978 0)
(-0.00626468 -0.0301016 0)
(-0.00150219 -0.0105297 0)
(-0.00160113 0.0122905 0)
(-0.00661001 0.0344993 0)
(-0.013583 0.0541453 0)
(-0.0223405 0.0709981 0)
(-0.0325989 0.0849111 0)
(-0.0440154 0.0958189 0)
(-0.0562331 0.10373 0)
(-0.0689043 0.108714 0)
(-0.0817058 0.110896 0)
(-0.0943458 0.110436 0)
(-0.106568 0.107527 0)
(-0.118151 0.102378 0)
(-0.128908 0.0952127 0)
(-0.138683 0.0862581 0)
(-0.147348 0.0757435 0)
(-0.154799 0.0638964 0)
(-0.160952 0.0509421 0)
(-0.165742 0.0371034 0)
(-0.169118 0.0226022 0)
(-0.171041 0.0076608 0)
(-0.171486 -0.00749536 0)
(-0.170436 -0.0226354 0)
(-0.167888 -0.0375205 0)
(-0.163851 -0.0519021 0)
(-0.158348 -0.0655207 0)
(-0.151421 -0.0781056 0)
(-0.143133 -0.0893763 0)
(-0.133575 -0.0990453 0)
(-0.122868 -0.106823 0)
(-0.111169 -0.112425 0)
(-0.0986731 -0.11558 0)
(-0.085622 -0.116043 0)
(-0.0723 -0.113607 0)
(-0.0590348 -0.108118 0)
(-0.0461925 -0.0994869 0)
(-0.0341659 -0.0877066 0)
(-0.0233567 -0.0728607 0)
(-0.0141464 -0.0551313 0)
(-0.00684557 -0.0348004 0)
(-0.00164343 -0.0122418 0)
(-0.00172429 0.0140501 0)
(-0.0071093 0.0392632 0)
(-0.0145802 0.0614024 0)
(-0.0239287 0.0802478 0)
(-0.0348362 0.0956747 0)
(-0.0469247 0.107649 0)
(-0.0598055 0.116216 0)
(-0.0731053 0.12149 0)
(-0.086482 0.123635 0)
(-0.0996319 0.122859 0)
(-0.112293 0.119393 0)
(-0.124246 0.113486 0)
(-0.135306 0.105396 0)
(-0.145326 0.0953796 0)
(-0.154187 0.083692 0)
(-0.161795 0.0705822 0)
(-0.168078 0.0562934 0)
(-0.172978 0.0410631 0)
(-0.176451 0.0251251 0)
(-0.178464 0.00871227 0)
(-0.178991 -0.00794021 0)
(-0.178016 -0.0245916 0)
(-0.175531 -0.0409921 0)
(-0.171535 -0.0568801 0)
(-0.166044 -0.0719797 0)
(-0.159085 -0.0859999 0)
(-0.150707 -0.098635 0)
(-0.140988 -0.109567 0)
(-0.130032 -0.118469 0)
(-0.117987 -0.125016 0)
(-0.105041 -0.128889 0)
(-0.0914334 -0.129793 0)
(-0.0774553 -0.127468 0)
(-0.06345 -0.121707 0)
(-0.0498082 -0.112375 0)
(-0.0369578 -0.099421 0)
(-0.0253432 -0.0828981 0)
(-0.0153941 -0.0629694 0)
(-0.00746855 -0.0399123 0)
(-0.00179545 -0.0141125 0)
(-0.00185419 0.0159404 0)
(-0.00763402 0.0443618 0)
(-0.0156209 0.0691421 0)
(-0.0255724 0.0900746 0)
(-0.0371303 0.107062 0)
(-0.0498777 0.120109 0)
(-0.0633919 0.129307 0)
(-0.0772736 0.134821 0)
(-0.0911624 0.136867 0)
(-0.104745 0.135703 0)
(-0.117758 0.131609 0)
(-0.129984 0.124878 0)
(-0.141249 0.115803 0)
(-0.151416 0.104677 0)
(-0.160381 0.0917793 0)
(-0.168063 0.0773815 0)
(-0.174403 0.0617433 0)
(-0.179355 0.0451149 0)
(-0.182885 0.0277398 0)
(-0.184966 0.00985846 0)
(-0.185575 -0.0082878 0)
(-0.184694 -0.0264518 0)
(-0.182311 -0.0443764 0)
(-0.178417 -0.0617899 0)
(-0.173013 -0.0784032 0)
(-0.166113 -0.093907 0)
(-0.15775 -0.107972 0)
(-0.147978 -0.120248 0)
(-0.136888 -0.130372 0)
(-0.124607 -0.137972 0)
(-0.111312 -0.142678 0)
(-0.097235 -0.144135 0)
(-0.0826699 -0.142021 0)
(-0.0679716 -0.136068 0)
(-0.0535545 -0.126079 0)
(-0.0398821 -0.11195 0)
(-0.0274448 -0.0936926 0)
(-0.016726 -0.071441 0)
(-0.00813867 -0.0454633 0)
(-0.00195963 -0.0161542 0)
(-0.00199229 0.0179687 0)
(-0.00818942 0.0498089 0)
(-0.0167133 0.0773767 0)
(-0.0272806 0.100483 0)
(-0.0394876 0.119065 0)
(-0.0528738 0.133174 0)
(-0.0669805 0.14296 0)
(-0.0813817 0.148647 0)
(-0.0957006 0.150514 0)
(-0.109618 0.148879 0)
(-0.12287 0.144077 0)
(-0.13525 0.13645 0)
(-0.146596 0.126333 0)
(-0.156789 0.114052 0)
(-0.165741 0.0999162 0)
(-0.173392 0.0842172 0)
(-0.179699 0.06723 0)
(-0.184631 0.0492153 0)
(-0.188165 0.0304231 0)
(-0.190283 0.0110975 0)
(-0.190967 -0.0085175 0)
(-0.190198 -0.0281729 0)
(-0.187959 -0.0476081 0)
(-0.184232 -0.0665461 0)
(-0.179004 -0.0846878 0)
(-0.172271 -0.101709 0)
(-0.164044 -0.117258 0)
(-0.154355 -0.130956 0)
(-0.143268 -0.1424 0)
(-0.130889 -0.151168 0)
(-0.117375 -0.156833 0)
(-0.102945 -0.158973 0)
(-0.0878885 -0.157196 0)
(-0.072567 -0.151154 0)
(-0.0574167 -0.140578 0)
(-0.0429363 -0.125297 0)
(-0.0296659 -0.105264 0)
(-0.0181484 -0.0805755 0)
(-0.00886071 -0.0514809 0)
(-0.00213735 -0.0183804 0)
(-0.00214029 0.020144 0)
(-0.00878173 0.0556208 0)
(-0.0178669 0.0861204 0)
(-0.0290633 0.111476 0)
(-0.0419137 0.131669 0)
(-0.0559093 0.146809 0)
(-0.0705529 0.157117 0)
(-0.0853917 0.162889 0)
(-0.100035 0.16448 0)
(-0.11416 0.162276 0)
(-0.127512 0.156676 0)
(-0.139896 0.148076 0)
(-0.151171 0.136858 0)
(-0.16124 0.123385 0)
(-0.170039 0.107993 0)
(-0.177531 0.0909939 0)
(-0.183693 0.0726765 0)
(-0.188513 0.0533085 0)
(-0.191985 0.0331427 0)
(-0.194099 0.0124229 0)
(-0.194844 -0.00860945 0)
(-0.194203 -0.0297081 0)
(-0.192152 -0.0506144 0)
(-0.188664 -0.0710507 0)
(-0.183712 -0.090713 0)
(-0.177269 -0.109266 0)
(-0.169322 -0.12634 0)
(-0.159875 -0.141528 0)
(-0.14896 -0.154386 0)
(-0.136654 -0.164443 0)
(-0.123086 -0.171207 0)
(-0.108453 -0.174182 0)
(-0.0930316 -0.17289 0)
(-0.0771857 -0.166894 0)
(-0.0613677 -0.155834 0)
(-0.0461109 -0.139451 0)
(-0.0320073 -0.117626 0)
(-0.0196664 -0.0904001 0)
(-0.00963914 -0.0579938 0)
(-0.00232998 -0.020806 0)
(-0.00230031 0.0224772 0)
(-0.00941852 0.0618167 0)
(-0.0190931 0.0953879 0)
(-0.0309313 0.123054 0)
(-0.0444136 0.144851 0)
(-0.0589768 0.160966 0)
(-0.0740825 0.171701 0)
(-0.0892523 0.177445 0)
(-0.104085 0.178639 0)
(-0.118261 0.175751 0)
(-0.131537 0.169252 0)
(-0.143742 0.159599 0)
(-0.154761 0.147225 0)
(-0.164525 0.132528 0)
(-0.173001 0.115875 0)
(-0.180178 0.097596 0)
(-0.186062 0.0779887 0)
(-0.190662 0.0573251 0)
(-0.193988 0.0358567 0)
(-0.196046 0.0138219 0)
(-0.196831 -0.00854573 0)
(-0.196328 -0.0310083 0)
(-0.19451 -0.053315 0)
(-0.19134 -0.0751935 0)
(-0.186773 -0.0963409 0)
(-0.18076 -0.116417 0)
(-0.173259 -0.135036 0)
(-0.164239 -0.151767 0)
(-0.153699 -0.166129 0)
(-0.141673 -0.177598 0)
(-0.128254 -0.185612 0)
(-0.113609 -0.189594 0)
(-0.0979905 -0.188967 0)
(-0.0817552 -0.183187 0)
(-0.0653656 -0.171782 0)
(-0.0493869 -0.154385 0)
(-0.034465 -0.130782 0)
(-0.0212831 -0.100939 0)
(-0.0104781 -0.065031 0)
(-0.00253885 -0.0234472 0)
(-0.00247491 0.0249815 0)
(-0.0101091 0.0684191 0)
(-0.0204052 0.105195 0)
(-0.0328968 0.135213 0)
(-0.0469908 0.158581 0)
(-0.0620629 0.175578 0)
(-0.0775316 0.186614 0)
(-0.092895 0.192185 0)
(-0.107746 0.192836 0)
(-0.121776 0.189131 0)
(-0.134764 0.181621 0)
(-0.146568 0.170831 0)
(-0.157108 0.157247 0)
(-0.166352 0.141308 0)
(-0.174303 0.123405 0)
(-0.180984 0.103885 0)
(-0.186431 0.0830534 0)
(-0.19068 0.0611806 0)
(-0.193762 0.0385116 0)
(-0.195698 0.0152741 0)
(-0.196492 -0.00831178 0)
(-0.196134 -0.0320232 0)
(-0.194594 -0.0556238 0)
(-0.191823 -0.0788532 0)
(-0.18776 -0.101417 0)
(-0.182332 -0.122974 0)
(-0.175464 -0.143134 0)
(-0.167088 -0.161444 0)
(-0.157157 -0.177388 0)
(-0.145659 -0.190389 0)
(-0.132639 -0.199815 0)
(-0.11822 -0.204996 0)
(-0.10262 -0.205244 0)
(-0.086175 -0.19989 0)
(-0.069349 -0.188325 0)
(-0.0527336 -0.17005 0)
(-0.0370291 -0.144722 0)
(-0.0229994 -0.11221 0)
(-0.0113811 -0.0726213 0)
(-0.00276525 -0.0263216 0)
(-0.0026673 0.0276732 0)
(-0.0108646 0.0754545 0)
(-0.021819 0.115559 0)
(-0.0349725 0.147944 0)
(-0.0496455 0.172811 0)
(-0.0651454 0.190558 0)
(-0.0808466 0.201726 0)
(-0.0962274 0.206942 0)
(-0.110883 0.206876 0)
(-0.124525 0.202199 0)
(-0.136966 0.193556 0)
(-0.148102 0.181544 0)
(-0.1579 0.166705 0)
(-0.166372 0.149516 0)
(-0.173564 0.130395 0)
(-0.179539 0.1097 0)
(-0.184367 0.0877375 0)
(-0.188114 0.0647739 0)
(-0.190836 0.0410413 0)
(-0.19257 0.0167506 0)
(-0.193334 -0.00789815 0)
(-0.193121 -0.0327036 0)
(-0.191899 -0.0574509 0)
(-0.189612 -0.0818995 0)
(-0.18618 -0.10577 0)
(-0.181505 -0.128733 0)
(-0.175479 -0.150395 0)
(-0.167989 -0.170291 0)
(-0.158939 -0.187876 0)
(-0.148261 -0.202523 0)
(-0.135939 -0.213527 0)
(-0.122039 -0.220118 0)
(-0.106729 -0.221485 0)
(-0.0903094 -0.216812 0)
(-0.0732312 -0.205328 0)
(-0.0561041 -0.186363 0)
(-0.039681 -0.159418 0)
(-0.0248128 -0.124223 0)
(-0.0123511 -0.0807919 0)
(-0.00301035 -0.0294478 0)
(-0.00288132 0.0305724 0)
(-0.0116988 0.0829537 0)
(-0.0233521 0.126495 0)
(-0.0371706 0.161227 0)
(-0.052372 0.187474 0)
(-0.0681883 0.205788 0)
(-0.0839503 0.21687 0)
(-0.0991239 0.221508 0)
(-0.113318 0.220518 0)
(-0.126277 0.214695 0)
(-0.137858 0.204787 0)
(-0.148013 0.191469 0)
(-0.156762 0.175339 0)
(-0.164172 0.156914 0)
(-0.170338 0.13663 0)
(-0.175369 0.114853 0)
(-0.179373 0.0918876 0)
(-0.182449 0.0679873 0)
(-0.184678 0.0433662 0)
(-0.186118 0.0182117 0)
(-0.186801 -0.00730243 0)
(-0.186725 -0.0330034 0)
(-0.18586 -0.0587056 0)
(-0.18414 -0.0841961 0)
(-0.18147 -0.10922 0)
(-0.177728 -0.133467 0)
(-0.172768 -0.156552 0)
(-0.166433 -0.178007 0)
(-0.158571 -0.197265 0)
(-0.149049 -0.213655 0)
(-0.137779 -0.226401 0)
(-0.124753 -0.234628 0)
(-0.11007 -0.23739 0)
(-0.0939764 -0.233702 0)
(-0.0768919 -0.222599 0)
(-0.0594298 -0.203204 0)
(-0.0423901 -0.174812 0)
(-0.0267154 -0.136973 0)
(-0.0133892 -0.0895667 0)
(-0.00327505 -0.0328459 0)
(-0.00312151 0.0337037 0)
(-0.012627 0.0909526 0)
(-0.0250233 0.138016 0)
(-0.0394996 0.175029 0)
(-0.0551524 0.202478 0)
(-0.0711324 0.22111 0)
(-0.0867307 0.23183 0)
(-0.101412 0.23562 0)
(-0.114815 0.233465 0)
(-0.126732 0.226303 0)
(-0.137086 0.214993 0)
(-0.145894 0.200292 0)
(-0.153244 0.182853 0)
(-0.159264 0.163227 0)
(-0.164107 0.141865 0)
(-0.167931 0.119135 0)
(-0.170885 0.0953309 0)
(-0.173104 0.070687 0)
(-0.174695 0.045393 0)
(-0.175738 0.0196068 0)
(-0.176279 -0.00653126 0)
(-0.176325 -0.0328836 0)
(-0.175847 -0.0593009 0)
(-0.174774 -0.0856064 0)
(-0.172997 -0.111579 0)
(-0.170371 -0.136937 0)
(-0.166714 -0.161316 0)
(-0.161825 -0.184257 0)
(-0.15549 -0.205182 0)
(-0.147503 -0.223385 0)
(-0.137695 -0.238024 0)
(-0.125964 -0.248121 0)
(-0.112322 -0.252583 0)
(-0.0969339 -0.250235 0)
(-0.0801647 -0.239884 0)
(-0.062611 -0.220399 0)
(-0.0451077 -0.190813 0)
(-0.0286911 -0.150438 0)
(-0.0144938 -0.0989644 0)
(-0.00355966 -0.0365369 0)
(-0.00339296 0.0370977 0)
(-0.0136664 0.0994914 0)
(-0.02685 0.150131 0)
(-0.0419585 0.189295 0)
(-0.0579474 0.217689 0)
(-0.0738816 0.236313 0)
(-0.0890223 0.246328 0)
(-0.102851 0.248946 0)
(-0.115057 0.245353 0)
(-0.125505 0.236645 0)
(-0.1342 0.223797 0)
(-0.141243 0.207651 0)
(-0.146799 0.18891 0)
(-0.151069 0.168151 0)
(-0.154267 0.145833 0)
(-0.156602 0.122317 0)
(-0.158268 0.0978777 0)
(-0.159432 0.0727249 0)
(-0.160231 0.0470161 0)
(-0.160766 0.0208733 0)
(-0.161095 -0.00560231 0)
(-0.161239 -0.0323148 0)
(-0.16117 -0.0591582 0)
(-0.160816 -0.0859996 0)
(-0.160058 -0.112661 0)
(-0.158728 -0.1389 0)
(-0.156617 -0.164387 0)
(-0.153476 -0.188684 0)
(-0.149031 -0.211217 0)
(-0.142999 -0.231262 0)
(-0.135116 -0.247919 0)
(-0.125174 -0.260114 0)
(-0.113069 -0.2666 0)
(-0.0988586 -0.265997 0)
(-0.0828201 -0.256845 0)
(-0.0655036 -0.237705 0)
(-0.0477584 -0.207281 0)
(-0.0307103 -0.164568 0)
(-0.0156586 -0.108995 0)
(-0.00386339 -0.0405427 0)
(-0.00370085 0.0407914 0)
(-0.0148334 0.108614 0)
(-0.0288428 0.162832 0)
(-0.0445271 0.203934 0)
(-0.0606793 0.23292 0)
(-0.0762806 0.251118 0)
(-0.0905798 0.260006 0)
(-0.103102 0.261077 0)
(-0.113617 0.255743 0)
(-0.12209 0.245274 0)
(-0.12863 0.230766 0)
(-0.133437 0.213137 0)
(-0.136769 0.193136 0)
(-0.138903 0.171352 0)
(-0.140117 0.148244 0)
(-0.140674 0.124152 0)
(-0.140808 0.0993267 0)
(-0.140719 0.0739426 0)
(-0.14057 0.0481194 0)
(-0.14048 0.0219376 0)
(-0.140525 -0.00454585 0)
(-0.140734 -0.031282 0)
(-0.141086 -0.0582138 0)
(-0.14151 -0.0852592 0)
(-0.14188 -0.112292 0)
(-0.142018 -0.13912 0)
(-0.141686 -0.165461 0)
(-0.140597 -0.190915 0)
(-0.138418 -0.214933 0)
(-0.134789 -0.236787 0)
(-0.129344 -0.255543 0)
(-0.121753 -0.27004 0)
(-0.111773 -0.278883 0)
(-0.0993189 -0.28047 0)
(-0.0845399 -0.273043 0)
(-0.0678985 -0.254794 0)
(-0.0502255 -0.224012 0)
(-0.032722 -0.179276 0)
(-0.0168684 -0.119655 0)
(-0.00418332 -0.0448855 0)
(-0.00404953 0.0448294 0)
(-0.0161401 0.118364 0)
(-0.0309958 0.176093 0)
(-0.0471472 0.218804 0)
(-0.0632056 0.247904 0)
(-0.0780796 0.265146 0)
(-0.0910366 0.272404 0)
(-0.101685 0.271502 0)
(-0.109914 0.264107 0)
(-0.115822 0.251671 0)
(-0.119647 0.235407 0)
(-0.121707 0.216302 0)
(-0.122358 0.195129 0)
(-0.121959 0.172481 0)
(-0.120851 0.148798 0)
(-0.119345 0.124391 0)
(-0.117713 0.0994729 0)
(-0.116183 0.0741777 0)
(-0.114937 0.048581 0)
(-0.114112 0.0227169 0)
(-0.113798 -0.0034056 0)
(-0.114032 -0.0297878 0)
(-0.114803 -0.0564255 0)
(-0.116046 -0.0832928 0)
(-0.117635 -0.110322 0)
(-0.119385 -0.137382 0)
(-0.121045 -0.164252 0)
(-0.122295 -0.190586 0)
(-0.122754 -0.21588 0)
(-0.121989 -0.239433 0)
(-0.11953 -0.260297 0)
(-0.114914 -0.277251 0)
(-0.107738 -0.288767 0)
(-0.0977356 -0.293016 0)
(-0.0848803 -0.287914 0)
(-0.0694905 -0.27122 0)
(-0.052328 -0.240711 0)
(-0.0346393 -0.19442 0)
(-0.0180926 -0.13092 0)
(-0.00451261 -0.0495869 0)
(-0.00444043 0.0492639 0)
(-0.0175855 0.128777 0)
(-0.0332682 0.189841 0)
(-0.0496921 0.233682 0)
(-0.0652745 0.262263 0)
(-0.0788802 0.277894 0)
(-0.0898453 0.282934 0)
(-0.097917 0.279595 0)
(-0.103154 0.26982 0)
(-0.105825 0.255242 0)
(-0.106324 0.237178 0)
(-0.105098 0.216661 0)
(-0.102607 0.194472 0)
(-0.0992877 0.171183 0)
(-0.0955396 0.1472 0)
(-0.0917138 0.12279 0)
(-0.0881098 0.0981195 0)
(-0.0849752 0.0732738 0)
(-0.0825067 0.0482797 0)
(-0.0808514 0.0231226 0)
(-0.0801077 -0.00223834 0)
(-0.0803248 -0.0278557 0)
(-0.0815007 -0.05378 0)
(-0.0835791 -0.0800436 0)
(-0.0864441 -0.106643 0)
(-0.089914 -0.133514 0)
(-0.0937344 -0.16051 0)
(-0.0975718 -0.187358 0)
(-0.10101 -0.213624 0)
(-0.103554 -0.23866 0)
(-0.10464 -0.261544 0)
(-0.103669 -0.281026 0)
(-0.100059 -0.295477 0)
(-0.0933292 -0.302859 0)
(-0.0832187 -0.300742 0)
(-0.0698309 -0.286393 0)
(-0.0537842 -0.256964 0)
(-0.036316 -0.209783 0)
(-0.0192734 -0.142733 0)
(-0.00483736 -0.0546657 0)
(-0.00486792 0.0541536 0)
(-0.0191403 0.13987 0)