/*--------------------------------*- C++ -*----------------------------------*\
| =========                 |                                                 |
| \\      /  F ield         | OpenFOAM: The Open Source CFD Toolbox           |
|  \\    /   O peration     | Version:  4.1                                   |
|   \\  /    A nd           | Web:      www.OpenFOAM.org                      |
|    \\/     M anipulation  |                                                 |
\*---------------------------------------------------------------------------*/
FoamFile
{
    version     2.0;
    format      ascii;
    class       volScalarField;
    location    "0.0005";
    object      p;
}
// * * * * * * * * * * * * * * * * * * * * * * * * * * * * * * * * * * * * * //

dimensions      [1 -1 -2 0 0 0 0];

internalField   nonuniform List<scalar> 
441
(
100000
99999.9
99999.7
100000
100000
99999.5
99999.9
100000
100000
100002
100001
100001
100001
100000
100000
100000
100000
100000
100000
100000
100000
100000
100000
100000
100000
100000
100000
100000
100000
100000
100000
100001
100000
100000
100000
100000
100000
100000
100000
100000
100000
100000
99999.9
99999.8
99999.8
99999.9
99999.9
99999.8
100000
100000
100000
100001
100001
100001
100001
100001
100001
100001
100001
100001
100001
100001
100001
99999.9
99999.6
99999.6
99999.6
99999.7
99999.7
99999.9
100000
100000
100000
100000
100000
100001
100001
100001
100001
100001
100001
100001
100001
100001
99999.6
99999
99999.1
99999.1
99999.2
99999.3
99999.5
99999.7
99999.9
100000
100000
100001
100001
100001
100001
100001
100001
100001
100001
100002
100001
99997.4
99998.3
99998.1
99998.4
99998.6
99998.8
99999.1
99999.4
99999.7
100000
100000
100001
100001
100001
100001
100002
100002
100002
100002
100002
100002
99996.6
99997.2
99997.2
99997.6
99997.8
99998.2
99998.5
99999
99999.4
99999.9
100000
100001
100001
100002
100002
100002
100003
100003
100003
100003
100002
99996
99996.2
99996.2
99996.6
99996.9
99997.4
99997.9
99998.4
99999.1
99999.7
100000
100001
100002
100002
100003
100003
100004
100004
100004
100004
100004
99994.6
99994.8
99995
99995.4
99995.8
99996.4
99997.1
99997.8
99998.7
99999.6
100000
100001
100002
100003
100004
100004
100005
100005
100005
100006
100005
99993.1
99993.3
99993.5
99993.9
99994.5
99995.2
99996.1
99997.1
99998.2
99999.4
100001
100002
100003
100004
100005
100006
100006
100007
100007
100008
100007
99991.2
99991.3
99991.7
99992.2
99992.9
99993.9
99995
99996.3
99997.7
99999.1
100001
100002
100004
100005
100006
100007
100008
100009
100009
100010
100011
99988.9
99989.1
99989.5
99990.2
99991.1
99992.3
99993.7
99995.3
99997.1
99998.9
100001
100003
100004
100006
100008
100009
100010
100011
100011
100012
100012
99986.1
99986.4
99986.9
99987.9
99989
99990.5
99992.3
99994.3
99996.4
99998.6
100001
100003
100005
100007
100009
100011
100012
100013
100014
100015
100012
99983.1
99983.5
99984
99985.3
99986.7
99988.6
99990.7
99993.1
99995.7
99998.3
100001
100004
100006
100009
100011
100013
100015
100016
100017
100018
100017
99978.7
99979.4
99980.2
99982
99983.8
99986.4
99989
99991.9
99994.9
99998
100001
100004
100007
100010
100013
100016
100018
100020
100021
100022
100021
99974.8
99975.7
99976.6
99978.9
99981.1
99984.3
99987.3
99990.8
99994.2
99997.8
100001
100005
100008
100012
100015
100018
100022
100024
100026
100026
100027
99967.1
99969.3
99970.6
99974.6
99977.5
99981.8
99985.5
99989.6
99993.5
99997.5
100001
100005
100009
100013
100018
100021
100026
100028
100035
100033
100045
99962.5
99965.3
99966.7
99971.7
99975
99980.1
99984.2
99988.8
99993
99997.3
100001
100006
100010
100014
100019
100023
100029
100032
100039
100039
100046
99945.7
99954.9
99957.5
99966.6
99971.2
99978
99982.8
99988
99992.6
99997.1
100002
100006
100011
100015
100021
100026
100033
100037
100048
100049
100060
99940.5
99951.6
99954.8
99965.1
99970
99977.3
99982.2
99987.7
99992.4
99997.1
100002
100006
100011
100016
100021
100026
100034
100039
100050
100053
100065
99892.5
99937.7
99944.2
99961.7
99967.6
99976.4
99981.6
99987.4
99992.2
99997
100002
100006
100011
100016
100022
100027
100036
100042
100060
100067
100114
)
;

boundaryField
{
    movingWall
    {
        type            zeroGradient;
    }
    fixedWalls
    {
        type            zeroGradient;
    }
    frontAndBack
    {
        type            empty;
    }
}


// ************************************************************************* //
