/*--------------------------------*- C++ -*----------------------------------*\
| =========                 |                                                 |
| \\      /  F ield         | OpenFOAM: The Open Source CFD Toolbox           |
|  \\    /   O peration     | Version:  4.1                                   |
|   \\  /    A nd           | Web:      www.OpenFOAM.org                      |
|    \\/     M anipulation  |                                                 |
\*---------------------------------------------------------------------------*/
FoamFile
{
    version     2.0;
    format      ascii;
    class       volVectorField;
    location    "0.0848";
    object      U;
}
// * * * * * * * * * * * * * * * * * * * * * * * * * * * * * * * * * * * * * //

dimensions      [0 1 -1 0 0 0 0];

internalField   nonuniform List<vector> 
441
(
(0.00371486 -0.00481405 0)
(0.00970672 -0.00253958 0)
(-0.000634894 -2.20687e-165 0)
(0.00195481 -3.3102e-266 0)
(-0.00837548 -0.00781964 0)
(-0.00195481 -3.04535e-232 0)
(-1.13897e-202 -5.57722e-203 0)
(-1.39422e-203 -7.31744e-228 0)
(-1.71532e-212 -3.19294e-213 0)
(-0.00612489 9.08707e-266 0)
(-0.0750629 0.0245007 0)
(-0.0943263 0.0128178 0)
(-0.106273 0.00586976 0)
(-0.0935283 0.000397933 0)
(-0.076986 -0.00164701 0)
(-0.0513045 -0.00301398 0)
(-0.0291727 -0.00215931 0)
(-0.00943567 -0.00160671 0)
(0.00256406 0.000726055 0)
(0.00439548 0.00148988 0)
(0.00454587 0.00298164 0)
(0.00381679 -0.00842194 0)
(-0.000959587 0.00681836 0)
(-0.0274196 0.00846635 0)
(-0.0592574 0.0107152 0)
(-0.106783 0.0108489 0)
(-0.151714 -0.00326363 0)
(-0.194052 -0.000157209 0)
(-0.234809 0.0016581 0)
(-0.271008 0.0132021 0)
(-0.307476 0.0668301 0)
(-0.332268 0.0615185 0)
(-0.326537 0.018817 0)
(-0.311603 -0.00727291 0)
(-0.269326 -0.0304719 0)
(-0.219618 -0.0407642 0)
(-0.156945 -0.046121 0)
(-0.10026 -0.0395352 0)
(-0.049795 -0.0314113 0)
(-0.0157091 -0.0140362 0)
(-0.0012589 -0.00419632 0)
(0.00491785 0.00618577 0)
(0.00757681 -0.0081783 0)
(-0.00520125 0.0283094 0)
(-0.0542151 0.0569054 0)
(-0.120766 0.0768077 0)
(-0.202178 0.0834589 0)
(-0.286477 0.0831156 0)
(-0.377144 0.080196 0)
(-0.45102 0.074454 0)
(-0.523552 0.0698801 0)
(-0.559133 0.065856 0)
(-0.555167 0.0444972 0)
(-0.537038 -0.00658847 0)
(-0.50004 -0.0506521 0)
(-0.434758 -0.091383 0)
(-0.35686 -0.113052 0)
(-0.262593 -0.12266 0)
(-0.175121 -0.108116 0)
(-0.0950401 -0.0866812 0)
(-0.0386309 -0.0467014 0)
(-0.00826906 -0.0195858 0)
(0.0063462 0.00703004 0)
(0.00634873 -0.0111281 0)
(-0.0162517 0.0703811 0)
(-0.0970819 0.123991 0)
(-0.19255 0.161125 0)
(-0.305116 0.176926 0)
(-0.418523 0.174483 0)
(-0.530331 0.166127 0)
(-0.627229 0.148988 0)
(-0.706965 0.123805 0)
(-0.754009 0.0957156 0)
(-0.763462 0.0391498 0)
(-0.73978 -0.0374583 0)
(-0.689854 -0.109727 0)
(-0.603816 -0.174856 0)
(-0.500456 -0.212779 0)
(-0.375077 -0.229423 0)
(-0.256638 -0.20653 0)
(-0.144916 -0.169601 0)
(-0.0643207 -0.09992 0)
(-0.0158778 -0.0505694 0)
(0.00798692 0.00465005 0)
(6.91631e-165 0.00158718 0)
(-0.0246607 0.131281 0)
(-0.141145 0.232403 0)
(-0.26055 0.283364 0)
(-0.40263 0.308297 0)
(-0.540856 0.306442 0)
(-0.678483 0.287544 0)
(-0.795203 0.249953 0)
(-0.892116 0.195901 0)
(-0.949476 0.123073 0)
(-0.966805 0.0306782 0)
(-0.944362 -0.0799334 0)
(-0.886643 -0.185848 0)
(-0.784557 -0.281151 0)
(-0.65792 -0.340704 0)
(-0.499849 -0.367403 0)
(-0.348013 -0.336777 0)
(-0.197802 -0.280155 0)
(-0.0903474 -0.174007 0)
(-0.0183587 -0.0927892 0)
(0.0145981 -7.28424e-05 0)
(-5.606e-266 0.00579966 0)
(-0.0898454 0.216334 0)
(-0.19727 0.357835 0)
(-0.340676 0.424476 0)
(-0.496249 0.457078 0)
(-0.655718 0.451418 0)
(-0.809788 0.421107 0)
(-0.945828 0.362879 0)
(-1.05806 0.278983 0)
(-1.13282 0.169607 0)
(-1.16747 0.0343388 0)
(-1.1534 -0.118669 0)
(-1.09662 -0.26929 0)
(-0.983454 -0.405251 0)
(-0.836612 -0.497053 0)
(-0.64468 -0.54188 0)
(-0.455415 -0.507528 0)
(-0.260121 -0.430481 0)
(-0.120297 -0.277351 0)
(-0.0206792 -0.158776 0)
(0.0161357 0.0022409 0)
(-0.0231986 0.0946741 0)
(-0.125273 0.324931 0)
(-0.248972 0.483593 0)
(-0.406731 0.580459 0)
(-0.581416 0.622472 0)
(-0.759431 0.618459 0)
(-0.93389 0.576786 0)
(-1.09002 0.49725 0)
(-1.22332 0.382628 0)
(-1.31869 0.232228 0)
(-1.37344 0.0517483 0)
(-1.37429 -0.151119 0)
(-1.32527 -0.354794 0)
(-1.20754 -0.542143 0)
(-1.04508 -0.678023 0)
(-0.818352 -0.750558 0)
(-0.589096 -0.719054 0)
(-0.335422 -0.617802 0)
(-0.160506 -0.410156 0)
(-0.00757375 -0.231104 0)
(5.97038e-266 -0.00403391 0)
(-0.0171235 0.156746 0)
(-0.119961 0.443276 0)
(-0.272013 0.639825 0)
(-0.450349 0.757689 0)
(-0.644954 0.809972 0)
(-0.84212 0.804159 0)
(-1.03509 0.751983 0)
(-1.2123 0.652157 0)
(-1.36779 0.508067 0)
(-1.48835 0.319155 0)
(-1.56921 0.0903689 0)
(-1.59292 -0.167944 0)
(-1.56124 -0.435518 0)
(-1.44852 -0.687732 0)
(-1.27822 -0.885568 0)
(-1.02125 -1.00213 0)
(-0.749652 -0.988832 0)
(-0.432492 -0.865539 0)
(-0.208311 -0.600542 0)
(-0.00368736 -0.328902 0)
(2.60541e-24 -1.06842e-24 0)
(-0.015208 0.228073 0)
(-0.123483 0.577921 0)
(-0.292162 0.812306 0)
(-0.485265 0.951482 0)
(-0.69608 1.01286 0)
(-0.908426 1.00692 0)
(-1.11798 0.945995 0)
(-1.31415 0.828736 0)
(-1.49172 0.658386 0)
(-1.63839 0.432976 0)
(-1.74808 0.156904 0)
(-1.80121 -0.159652 0)
(-1.79602 -0.497737 0)
(-1.70042 -0.826528 0)
(-1.53467 -1.10311 0)
(-1.25729 -1.28246 0)
(-0.948156 -1.30415 0)
(-0.562282 -1.16463 0)
(-0.279178 -0.831115 0)
(-0.00499527 -0.447475 0)
(1.06e-76 -6.51352e-25 0)
(-0.01319 0.295995 0)
(-0.1208 0.721944 0)
(-0.298574 1.0023 0)
(-0.5 1.16215 0)
(-0.7203 1.23351 0)
(-0.941932 1.22596 0)
(-1.16152 1.1579 0)
(-1.37142 1.02543 0)
(-1.56625 0.832467 0)
(-1.73677 0.574783 0)
(-1.87537 0.25352 0)
(-1.96236 -0.121198 0)
(-1.99237 -0.535618 0)
(-1.92765 -0.95177 0)
(-1.78272 -1.32783 0)
(-1.50207 -1.59475 0)
(-1.1662 -1.68233 0)
(-0.714001 -1.54508 0)
(-0.363354 -1.15212 0)
(-0.00718143 -0.623659 0)
(2.94667e-164 -2.64999e-77 0)
(-0.0131563 0.358573 0)
(-0.121348 0.861528 0)
(-0.303872 1.18914 0)
(-0.507759 1.37088 0)
(-0.729435 1.45302 0)
(-0.951476 1.44605 0)
(-1.17091 1.37433 0)
(-1.38438 1.23194 0)
(-1.58612 1.0233 0)
(-1.77224 0.741238 0)
(-1.93356 0.383107 0)
(-2.0542 -0.0430587 0)
(-2.12446 -0.530387 0)
(-2.10491 -1.03713 0)
(-2.00102 -1.52525 0)
(-1.74367 -1.90288 0)
(-1.40544 -2.08723 0)
(-0.905648 -1.97598 0)
(-0.48823 -1.5261 0)
(-0.0810319 -0.824278 0)
(1.78781e-265 0.0133153 0)
(-0.0136192 0.431385 0)
(-0.117637 1.01483 0)
(-0.297119 1.39018 0)
(-0.494006 1.58839 0)
(-0.705625 1.67835 0)
(-0.915835 1.66737 0)
(-1.12118 1.59143 0)
(-1.32384 1.44018 0)
(-1.5173 1.22051 0)
(-1.70492 0.921523 0)
(-1.87671 0.535594 0)
(-2.02368 0.0687253 0)
(-2.13351 -0.484256 0)
(-2.16875 -1.07741 0)
(-2.12546 -1.68782 0)
(-1.92188 -2.19695 0)
(-1.61117 -2.51909 0)
(-1.08364 -2.47684 0)
(-0.586477 -1.97083 0)
(-0.0760402 -1.13185 0)
(0.0532612 -0.0767674 0)
(-0.0168116 0.485439 0)
(-0.120485 1.14208 0)
(-0.298261 1.5626 0)
(-0.483542 1.77607 0)
(-0.673871 1.87304 0)
(-0.858558 1.85904 0)
(-1.03118 1.7814 0)
(-1.20402 1.62656 0)
(-1.36724 1.40416 0)
(-1.5361 1.10019 0)
(-1.69766 0.702671 0)
(-1.8567 0.214247 0)
(-1.99593 -0.382575 0)
(-2.09061 -1.0443 0)
(-2.12325 -1.7666 0)
(-2.00758 -2.41888 0)
(-1.77258 -2.91873 0)
(-1.24336 -3.00964 0)
(-0.715412 -2.52727 0)
(0.0430372 -1.47127 0)
(2.46033e-231 -0.0133153 0)
(-0.0212648 0.571655 0)
(-0.121706 1.29934 0)
(-0.290484 1.75713 0)
(-0.453744 1.96513 0)
(-0.608871 2.05658 0)
(-0.752251 2.02511 0)
(-0.873919 1.93896 0)
(-0.996916 1.77642 0)
(-1.10771 1.55346 0)
(-1.23396 1.25207 0)
(-1.36071 0.856257 0)
(-1.50802 0.367136 0)
(-1.65773 -0.2503 0)
(-1.80244 -0.950417 0)
(-1.91911 -1.7697 0)
(-1.92751 -2.55173 0)
(-1.82751 -3.28164 0)
(-1.40339 -3.55223 0)
(-0.892598 -3.25066 0)
(-0.00300731 -1.88513 0)
(5.81907e-202 4.58324e-184 0)
(-0.0371572 0.621515 0)
(-0.151986 1.40525 0)
(-0.321914 1.89095 0)
(-0.461751 2.08908 0)
(-0.564446 2.17013 0)
(-0.6486 2.12084 0)
(-0.692917 2.02602 0)
(-0.742201 1.85932 0)
(-0.772205 1.64192 0)
(-0.830133 1.35414 0)
(-0.891939 0.978277 0)
(-1.00234 0.513996 0)
(-1.13181 -0.0847433 0)
(-1.31316 -0.778725 0)
(-1.49765 -1.63332 0)
(-1.66464 -2.507 0)
(-1.73512 -3.42616 0)
(-1.52851 -3.95306 0)
(-1.1083 -3.90402 0)
(-0.0114355 -2.39426 0)
(1.83329e-183 -1.3413e-184 0)
(-0.0557791 0.769001 0)
(-0.1859 1.58843 0)
(-0.346466 2.07649 0)
(-0.449336 2.20914 0)
(-0.483147 2.25074 0)
(-0.49047 2.15443 0)
(-0.439957 2.037 0)
(-0.396297 1.85668 0)
(-0.325876 1.64341 0)
(-0.292022 1.37338 0)
(-0.263605 1.02861 0)
(-0.304156 0.609559 0)
(-0.379853 0.0590161 0)
(-0.553781 -0.581011 0)
(-0.778666 -1.42123 0)
(-1.08026 -2.31059 0)
(-1.37502 -3.42235 0)
(-1.49604 -4.18566 0)
(-1.39695 -4.78453 0)
(-0.465807 -3.04068 0)
(4.40008e-254 -4.58324e-184 0)
(-0.121611 0.849477 0)
(-0.319554 1.68288 0)
(-0.471896 2.14945 0)
(-0.525964 2.21617 0)
(-0.441711 2.21068 0)
(-0.338008 2.0728 0)
(-0.14914 1.93294 0)
(0.0169623 1.74437 0)
(0.218014 1.53938 0)
(0.364931 1.29448 0)
(0.507828 0.992818 0)
(0.554295 0.636377 0)
(0.563791 0.1687 0)
(0.412466 -0.370454 0)
(0.202699 -1.09883 0)
(-0.256226 -1.89959 0)
(-0.709602 -2.98426 0)
(-1.4533 -3.92994 0)
(-1.64536 -4.84344 0)
(-2.07307 -3.8675 0)
(-2.59084e-264 -0.215939 0)
(-0.178063 1.23188 0)
(-0.417036 1.94311 0)
(-0.50407 2.30536 0)
(-0.457743 2.17916 0)
(-0.219672 2.07661 0)
(0.0278439 1.8614 0)
(0.371527 1.68861 0)
(0.67578 1.48963 0)
(1.01338 1.29764 0)
(1.28151 1.08548 0)
(1.54217 0.838869 0)
(1.69059 0.558713 0)
(1.79765 0.197564 0)
(1.72155 -0.210407 0)
(1.57033 -0.763467 0)
(1.12453 -1.38204 0)
(0.587368 -2.25693 0)
(-0.345164 -3.206 0)
(-1.07995 -4.25525 0)
(-1.84149 -4.53566 0)
(-0.863756 -2.31658 0)
(-0.400551 1.4104 0)
(-0.726055 1.98023 0)
(-0.519897 2.1844 0)
(-0.239497 1.91476 0)
(0.316872 1.72599 0)
(0.781085 1.47352 0)
(1.33671 1.28693 0)
(1.79422 1.10044 0)
(2.26954 0.93565 0)
(2.64275 0.768714 0)
(2.99951 0.586252 0)
(3.2206 0.389688 0)
(3.40291 0.141236 0)
(3.37355 -0.127532 0)
(3.29222 -0.498338 0)
(2.86234 -0.894855 0)
(2.38754 -1.51566 0)
(1.36365 -2.23331 0)
(0.45817 -3.35274 0)
(-0.706839 -4.00562 0)
(-0.701229 -2.96404 0)
(-0.257329 2.42044 0)
(-0.104474 2.0571 0)
(0.682442 1.86916 0)
(1.32949 1.33416 0)
(2.14618 1.07602 0)
(2.77444 0.83436 0)
(3.43016 0.68142 0)
(3.94505 0.552433 0)
(4.44695 0.449574 0)
(4.83015 0.355261 0)
(5.18511 0.259574 0)
(5.40424 0.160762 0)
(5.58569 0.0413782 0)
(5.57088 -0.0868709 0)
(5.51793 -0.2623 0)
(5.15111 -0.455924 0)
(4.76104 -0.789878 0)
(3.82937 -1.24447 0)
(2.86607 -2.25338 0)
(1.09219 -3.33022 0)
(-0.0462614 -3.79889 0)
(1.66715 1.66947 0)
(2.70246 0.974505 0)
(4.54236 0.74827 0)
(5.38105 0.42378 0)
(6.2488 0.286444 0)
(6.75971 0.178131 0)
(7.24039 0.121371 0)
(7.56497 0.0810081 0)
(7.864 0.0545385 0)
(8.06732 0.0339269 0)
(8.24987 0.0155356 0)
(8.33944 -0.00175332 0)
(8.41195 -0.0228674 0)
(8.35414 -0.0436557 0)
(8.29293 -0.0789399 0)
(8.00576 -0.11184 0)
(7.74995 -0.200911 0)
(6.99593 -0.29336 0)
(6.26244 -0.625167 0)
(4.04586 -0.997341 0)
(2.00525 -1.81794 0)
)
;

boundaryField
{
    movingWall
    {
        type            fixedValue;
        value           uniform (10 0 0);
    }
    fixedWalls
    {
        type            noSlip;
    }
    frontAndBack
    {
        type            empty;
    }
}


// ************************************************************************* //
