/*--------------------------------*- C++ -*----------------------------------*\
| =========                 |                                                 |
| \\      /  F ield         | OpenFOAM: The Open Source CFD Toolbox           |
|  \\    /   O peration     | Version:  4.1                                   |
|   \\  /    A nd           | Web:      www.OpenFOAM.org                      |
|    \\/     M anipulation  |                                                 |
\*---------------------------------------------------------------------------*/
FoamFile
{
    version     2.0;
    format      ascii;
    class       volScalarField;
    location    "0.0007";
    object      p;
}
// * * * * * * * * * * * * * * * * * * * * * * * * * * * * * * * * * * * * * //

dimensions      [1 -1 -2 0 0 0 0];

internalField   nonuniform List<scalar> 
441
(
100000
99999.9
99999.7
100000
100000
99999.5
100000
100000
100000
100002
100001
100001
100001
100000
100000
100000
100000
100000
100000
100000
100000
100000
100000
100000
100000
100000
100000
100000
100000
100000
100000
100001
100000
100000
100000
100000
100000
100000
100000
100000
100000
100000
99999.9
99999.8
99999.8
99999.9
99999.9
99999.9
100000
100000
100000
100001
100001
100001
100001
100001
100001
100001
100001
100001
100001
100001
100001
100000
99999.7
99999.7
99999.7
99999.7
99999.8
99999.9
100000
100000
100000
100000
100000
100001
100001
100001
100001
100001
100001
100001
100001
100001
99999.7
99999
99999.2
99999.2
99999.3
99999.4
99999.6
99999.8
100000
100000
100000
100001
100001
100001
100001
100001
100001
100001
100001
100001
100001
99997.5
99998.5
99998.3
99998.6
99998.7
99999
99999.2
99999.5
99999.7
100000
100000
100001
100001
100001
100001
100002
100002
100002
100002
100002
100002
99996.9
99997.4
99997.5
99997.8
99998
99998.3
99998.7
99999.1
99999.5
99999.9
100000
100001
100001
100002
100002
100002
100002
100003
100002
100003
100002
99996.3
99996.5
99996.6
99996.9
99997.2
99997.6
99998.1
99998.6
99999.2
99999.8
100000
100001
100002
100002
100003
100003
100003
100004
100004
100004
100003
99995
99995.2
99995.4
99995.7
99996.1
99996.7
99997.3
99998
99998.8
99999.6
100000
100001
100002
100003
100003
100004
100004
100005
100005
100006
100005
99993.7
99993.8
99994
99994.4
99994.9
99995.6
99996.4
99997.4
99998.4
99999.4
100001
100002
100003
100004
100004
100005
100006
100006
100006
100007
100006
99991.8
99992
99992.3
99992.8
99993.5
99994.4
99995.4
99996.6
99997.8
99999.2
100001
100002
100003
100005
100006
100007
100007
100008
100009
100009
100010
99989.8
99990
99990.4
99991
99991.8
99992.9
99994.2
99995.7
99997.3
99999
100001
100002
100004
100006
100007
100008
100009
100010
100010
100011
100011
99987.1
99987.4
99987.8
99988.7
99989.7
99991.2
99992.8
99994.7
99996.6
99998.7
100001
100003
100005
100007
100009
100010
100011
100012
100013
100014
100011
99984.4
99984.8
99985.3
99986.5
99987.6
99989.5
99991.4
99993.6
99996
99998.4
100001
100003
100006
100008
100010
100012
100014
100015
100016
100017
100016
99980.1
99980.8
99981.4
99983.2
99984.8
99987.3
99989.6
99992.4
99995.2
99998.1
100001
100004
100007
100010
100013
100015
100017
100019
100020
100020
100019
99976.8
99977.7
99978.3
99980.6
99982.4
99985.5
99988.2
99991.4
99994.5
99997.9
100001
100004
100008
100011
100014
100017
100020
100022
100024
100024
100025
99969.1
99971.4
99972.3
99976.3
99978.8
99983
99986.3
99990.2
99993.8
99997.6
100001
100005
100009
100012
100017
100020
100025
100026
100033
100030
100043
99965.4
99968.1
99969
99973.8
99976.6
99981.5
99985.1
99989.5
99993.4
99997.4
100001
100005
100009
100013
100018
100021
100027
100030
100036
100036
100043
99948.8
99957.8
99959.8
99968.7
99972.6
99979.3
99983.5
99988.7
99992.8
99997.2
100001
100005
100010
100014
100020
100024
100031
100035
100045
100046
100058
99944.7
99955.1
99957.6
99967.4
99971.6
99978.7
99983.1
99988.4
99992.6
99997.1
100001
100006
100010
100014
100020
100024
100032
100035
100047
100049
100062
99896.9
99941.3
99946.8
99963.8
99969.1
99977.8
99982.4
99988.1
99992.5
99997.1
100001
100006
100010
100015
100021
100025
100034
100039
100058
100064
100111
)
;

boundaryField
{
    movingWall
    {
        type            zeroGradient;
    }
    fixedWalls
    {
        type            zeroGradient;
    }
    frontAndBack
    {
        type            empty;
    }
}


// ************************************************************************* //
