/*--------------------------------*- C++ -*----------------------------------*\
| =========                 |                                                 |
| \\      /  F ield         | OpenFOAM: The Open Source CFD Toolbox           |
|  \\    /   O peration     | Version:  4.1                                   |
|   \\  /    A nd           | Web:      www.OpenFOAM.org                      |
|    \\/     M anipulation  |                                                 |
\*---------------------------------------------------------------------------*/
FoamFile
{
    version     2.0;
    format      ascii;
    class       volVectorField;
    location    "0.064";
    object      U;
}
// * * * * * * * * * * * * * * * * * * * * * * * * * * * * * * * * * * * * * //

dimensions      [0 1 -1 0 0 0 0];

internalField   nonuniform List<vector> 
100
(
(-0.00211673 0.00180077 0)
(-0.00534977 0.00184976 0)
(-0.011544 0.00183224 0)
(-0.0143323 0.000764634 0)
(-0.0171011 0.000328975 0)
(-0.0173493 -0.00104576 0)
(-0.0154687 -0.00156795 0)
(-0.0127726 -0.00284605 0)
(-0.00621738 -0.00295298 0)
(-0.00262671 -0.00288805 0)
(-0.00319799 0.00570287 0)
(-0.00939085 0.00747586 0)
(-0.0192849 0.00743146 0)
(-0.0240993 0.00453991 0)
(-0.0283317 0.00308267 0)
(-0.0287031 -0.000885001 0)
(-0.0257505 -0.0026298 0)
(-0.021074 -0.00663781 0)
(-0.0106973 -0.00699007 0)
(-0.0038197 -0.0059256 0)
(-0.0037684 0.0144477 0)
(-0.0109894 0.0177659 0)
(-0.0222596 0.0168464 0)
(-0.0278003 0.0093948 0)
(-0.0328025 0.00524671 0)
(-0.0333797 -0.00420602 0)
(-0.0304716 -0.00903396 0)
(-0.0252212 -0.0185222 0)
(-0.0133788 -0.0203264 0)
(-0.00503559 -0.0177566 0)
(-0.00588053 0.0202748 0)
(-0.0156369 0.0256561 0)
(-0.0302119 0.0244627 0)
(-0.0374753 0.0147676 0)
(-0.0436677 0.00923562 0)
(-0.0447526 -0.00337307 0)
(-0.0417419 -0.00998374 0)
(-0.0352362 -0.023618 0)
(-0.0199764 -0.0263761 0)
(-0.00789601 -0.0237824 0)
(-0.00697252 0.0363087 0)
(-0.0183556 0.0418687 0)
(-0.0350757 0.0393092 0)
(-0.0434943 0.0221526 0)
(-0.051081 0.0129803 0)
(-0.0528922 -0.0072176 0)
(-0.0511054 -0.0184761 0)
(-0.0444404 -0.0416626 0)
(-0.027524 -0.0481805 0)
(-0.0117261 -0.0467247 0)
(-0.0136843 0.0449746 0)
(-0.0313664 0.0530606 0)
(-0.0527766 0.0498125 0)
(-0.0641605 0.0302271 0)
(-0.0728075 0.0195727 0)
(-0.0760443 -0.00350823 0)
(-0.0761251 -0.0168987 0)
(-0.0687099 -0.0467834 0)
(-0.048002 -0.0572783 0)
(-0.021267 -0.0617367 0)
(-0.0157092 0.0824583 0)
(-0.0366351 0.080439 0)
(-0.0599769 0.0734926 0)
(-0.0723485 0.0408822 0)
(-0.0821704 0.0256966 0)
(-0.0860226 -0.00592167 0)
(-0.090369 -0.0256891 0)
(-0.08514 -0.0726189 0)
(-0.068391 -0.0967062 0)
(-0.0320365 -0.118917 0)
(-0.0396702 0.0953616 0)
(-0.0731097 0.0957972 0)
(-0.0867934 0.0857563 0)
(-0.0963121 0.0514297 0)
(-0.0995552 0.0348188 0)
(-0.102275 0.00436302 0)
(-0.113021 -0.0149654 0)
(-0.108347 -0.0678877 0)
(-0.10209 -0.106324 0)
(-0.0474943 -0.159421 0)
(-0.0344819 0.198342 0)
(-0.0369071 0.125916 0)
(-0.0244554 0.0998328 0)
(-0.0112361 0.0512639 0)
(-0.00265151 0.0331842 0)
(0.0108503 0.00409079 0)
(0.00244783 -0.018984 0)
(0.0125228 -0.088896 0)
(-0.0186233 -0.158944 0)
(-0.00427236 -0.276963 0)
(0.149376 0.160512 0)
(0.225685 0.0831745 0)
(0.348588 0.06158 0)
(0.393382 0.0288441 0)
(0.425686 0.0158195 0)
(0.445448 -0.000899104 0)
(0.426806 -0.0110252 0)
(0.418563 -0.0439157 0)
(0.290561 -0.0781323 0)
(0.185367 -0.170081 0)
)
;

boundaryField
{
    movingWall
    {
        type            fixedValue;
        value           uniform (1 0 0);
    }
    fixedWalls
    {
        type            noSlip;
    }
    frontAndBack
    {
        type            empty;
    }
}


// ************************************************************************* //
