/*--------------------------------*- C++ -*----------------------------------*\
| =========                 |                                                 |
| \\      /  F ield         | OpenFOAM: The Open Source CFD Toolbox           |
|  \\    /   O peration     | Version:  4.1                                   |
|   \\  /    A nd           | Web:      www.OpenFOAM.org                      |
|    \\/     M anipulation  |                                                 |
\*---------------------------------------------------------------------------*/
FoamFile
{
    version     2.0;
    format      ascii;
    class       volVectorField;
    location    "9.25";
    object      U;
}
// * * * * * * * * * * * * * * * * * * * * * * * * * * * * * * * * * * * * * //

dimensions      [0 1 -1 0 0 0 0];

internalField   nonuniform List<vector> 
400
(
(0.00019842 -0.000195564 0)
(-9.34487e-05 8.50738e-05 0)
(-0.00153893 0.00033186 0)
(-0.00373288 0.000513671 0)
(-0.00644073 0.000602306 0)
(-0.00932505 0.000632004 0)
(-0.0121615 0.00060767 0)
(-0.0147075 0.000533492 0)
(-0.0167359 0.000403345 0)
(-0.0180114 0.000215445 0)
(-0.0183278 -2.36332e-05 0)
(-0.0175482 -0.000291765 0)
(-0.0156572 -0.0005513 0)
(-0.0128105 -0.000751553 0)
(-0.00933961 -0.000843328 0)
(-0.00575052 -0.000787057 0)
(-0.00259045 -0.00058492 0)
(-0.000413056 -0.000258419 0)
(0.000551453 7.14348e-05 0)
(0.000314627 0.000299737 0)
(-8.94421e-05 8.41287e-05 0)
(-0.00205334 0.00192836 0)
(-0.00645448 0.00364344 0)
(-0.0123915 0.00487058 0)
(-0.0193607 0.00549682 0)
(-0.0266312 0.00561273 0)
(-0.033648 0.00525689 0)
(-0.039824 0.00444874 0)
(-0.0446157 0.00318702 0)
(-0.0475006 0.00150248 0)
(-0.0480555 -0.000508543 0)
(-0.0460332 -0.00265698 0)
(-0.0414557 -0.00466399 0)
(-0.034695 -0.00619189 0)
(-0.0264755 -0.00691912 0)
(-0.0178618 -0.00662091 0)
(-0.010009 -0.00529944 0)
(-0.00408736 -0.00318464 0)
(-0.00062396 -0.000944015 0)
(0.000176375 0.000583921 0)
(-0.000418257 0.00166625 0)
(-0.00434762 0.00645806 0)
(-0.0117459 0.0105004 0)
(-0.0211278 0.0132743 0)
(-0.0317762 0.014632 0)
(-0.0426812 0.0147129 0)
(-0.0530633 0.0135936 0)
(-0.0621005 0.0113211 0)
(-0.0690411 0.00793145 0)
(-0.0731839 0.00354436 0)
(-0.0739756 -0.00156942 0)
(-0.0711012 -0.00694295 0)
(-0.0645904 -0.0119243 0)
(-0.0549166 -0.0157468 0)
(-0.0430089 -0.017681 0)
(-0.030267 -0.0172179 0)
(-0.0182563 -0.0143311 0)
(-0.00866153 -0.0095399 0)
(-0.00234358 -0.00420551 0)
(-1.51311e-05 -1.60876e-05 0)
(-0.00074119 0.00442465 0)
(-0.00660255 0.0133789 0)
(-0.0168756 0.0203242 0)
(-0.02943 0.0248545 0)
(-0.0433463 0.0269279 0)
(-0.057395 0.0267757 0)
(-0.0706554 0.0245306 0)
(-0.0821611 0.0202779 0)
(-0.0910367 0.0141083 0)
(-0.0964658 0.00625369 0)
(-0.097793 -0.00281265 0)
(-0.0946104 -0.0123117 0)
(-0.0868702 -0.0211705 0)
(-0.0750114 -0.0281215 0)
(-0.0600085 -0.0319222 0)
(-0.0434654 -0.0316531 0)
(-0.0273004 -0.0271446 0)
(-0.0137865 -0.0191528 0)
(-0.00426545 -0.00975422 0)
(-0.000209458 -0.00152409 0)
(-0.00101649 0.00832911 0)
(-0.00862105 0.0226558 0)
(-0.0215176 0.0330608 0)
(-0.0369444 0.0395186 0)
(-0.0537907 0.0422612 0)
(-0.0706495 0.0416832 0)
(-0.0865212 0.0380059 0)
(-0.100364 0.0313645 0)
(-0.111238 0.0219079 0)
(-0.118247 0.00997452 0)
(-0.120628 -0.00377106 0)
(-0.117825 -0.0182482 0)
(-0.109605 -0.0319529 0)
(-0.0962217 -0.043058 0)
(-0.0785377 -0.049676 0)
(-0.0582473 -0.0502736 0)
(-0.0376082 -0.044308 0)
(-0.0196384 -0.0326171 0)
(-0.00638914 -0.0179919 0)
(-0.000388847 -0.00403319 0)
(-0.00124926 0.0131952 0)
(-0.0103444 0.0339497 0)
(-0.0255092 0.0482965 0)
(-0.0434265 0.0568197 0)
(-0.0628228 0.0601937 0)
(-0.0821606 0.0590638 0)
(-0.100414 0.0537831 0)
(-0.116527 0.0445454 0)
(-0.129545 0.031542 0)
(-0.138524 0.0151789 0)
(-0.142587 -0.00374734 0)
(-0.140979 -0.0239196 0)
(-0.13318 -0.0434443 0)
(-0.119105 -0.0599087 0)
(-0.0993127 -0.0706364 0)
(-0.0754139 -0.0731969 0)
(-0.0499302 -0.0662952 0)
(-0.0267678 -0.0505356 0)
(-0.00898456 -0.0293622 0)
(-0.000603596 -0.00765954 0)
(-0.00142944 0.0188672 0)
(-0.0117051 0.0469452 0)
(-0.0286893 0.0656563 0)
(-0.0486165 0.0763823 0)
(-0.0700886 0.0803926 0)
(-0.0914877 0.078672 0)
(-0.111811 0.0717537 0)
(-0.13004 0.0598973 0)
(-0.145264 0.0433105 0)
(-0.156526 0.0224041 0)
(-0.162861 -0.00198712 0)
(-0.163301 -0.0284224 0)
(-0.156973 -0.0547174 0)
(-0.143317 -0.077906 0)
(-0.122367 -0.0944074 0)
(-0.095377 -0.100564 0)
(-0.0649057 -0.0937807 0)
(-0.035772 -0.0738662 0)
(-0.0123738 -0.0446816 0)
(-0.000902919 -0.0127289 0)
(-0.0015519 0.0251301 0)
(-0.0126486 0.0612069 0)
(-0.0309142 0.0846092 0)
(-0.0522529 0.0976524 0)
(-0.07518 0.102333 0)
(-0.0980481 0.100061 0)
(-0.11992 0.0916024 0)
(-0.139875 0.0772942 0)
(-0.1571 0.0573325 0)
(-0.170696 0.0320615 0)
(-0.179669 0.00223837 0)
(-0.182888 -0.0307265 0)
(-0.179134 -0.0645284 0)
(-0.167295 -0.0957803 0)
(-0.146671 -0.119987 0)
(-0.117784 -0.131974 0)
(-0.0827893 -0.127153 0)
(-0.047171 -0.103622 0)
(-0.0169203 -0.0650132 0)
(-0.00135372 -0.019737 0)
(-0.00161378 0.0317625 0)
(-0.0131413 0.076266 0)
(-0.0320785 0.104561 0)
(-0.0541128 0.119976 0)
(-0.0777028 0.125348 0)
(-0.101221 0.122595 0)
(-0.123834 0.112776 0)
(-0.144775 0.0963264 0)
(-0.163396 0.0734154 0)
(-0.178945 0.0442596 0)
(-0.190504 0.00942556 0)
(-0.196899 -0.0298823 0)
(-0.196672 -0.0714747 0)
(-0.188183 -0.111807 0)
(-0.169874 -0.145651 0)
(-0.141144 -0.166206 0)
(-0.103098 -0.166186 0)
(-0.0612076 -0.140661 0)
(-0.0229872 -0.0916408 0)
(-0.00203805 -0.0294003 0)
(-0.00162381 0.0385192 0)
(-0.0132111 0.091592 0)
(-0.0321849 0.124808 0)
(-0.0541082 0.142533 0)
(-0.0774019 0.148548 0)
(-0.10051 0.145351 0)
(-0.122741 0.13437 0)
(-0.14354 0.116172 0)
(-0.162491 0.090908 0)
(-0.179087 0.0586353 0)
(-0.192622 0.0196438 0)
(-0.20205 -0.0252329 0)
(-0.205871 -0.0741911 0)
(-0.202089 -0.123916 0)
(-0.188335 -0.168871 0)
(-0.162612 -0.200874 0)
(-0.124271 -0.209486 0)
(-0.0776022 -0.185183 0)
(-0.0309038 -0.125841 0)
(-0.00306974 -0.0426517 0)
(-0.00161889 0.0452355 0)
(-0.0129929 0.106734 0)
(-0.0314114 0.14467 0)
(-0.0523769 0.164437 0)
(-0.0742838 0.170884 0)
(-0.0957175 0.167165 0)
(-0.116171 0.155154 0)
(-0.135357 0.1356 0)
(-0.15316 0.10867 0)
(-0.169403 0.0742648 0)
(-0.183722 0.0323603 0)
(-0.19538 -0.0166958 0)
(-0.203088 -0.0717319 0)
(-0.204791 -0.130106 0)
(-0.197591 -0.186622 0)
(-0.178105 -0.232428 0)
(-0.14344 -0.254074 0)
(-0.0952186 -0.236104 0)
(-0.040865 -0.168525 0)
(-0.00460696 -0.0606503 0)
(-0.00166828 0.0517854 0)
(-0.0127968 0.121258 0)
(-0.0302233 0.163418 0)
(-0.0494204 0.184671 0)
(-0.0687687 0.191116 0)
(-0.0871165 0.186623 0)
(-0.104199 0.173603 0)
(-0.120074 0.15303 0)
(-0.134968 0.125136 0)
(-0.1491 0.0896963 0)
(-0.162531 0.0463936 0)
(-0.17498 -0.00494715 0)
(-0.185611 -0.0639384 0)
(-0.192667 -0.128998 0)
(-0.193207 -0.196006 0)
(-0.182855 -0.256579 0)
(-0.156503 -0.295286 0)
(-0.111743 -0.290389 0)
(-0.0527269 -0.219627 0)
(-0.00686099 -0.0847132 0)
(-0.00193331 0.0584936 0)
(-0.0131671 0.13523 0)
(-0.0293805 0.180676 0)
(-0.0460712 0.202375 0)
(-0.061632 0.208017 0)
(-0.0753866 0.202236 0)
(-0.0873965 0.188055 0)
(-0.0981556 0.166687 0)
(-0.108264 0.138465 0)
(-0.118359 0.103085 0)
(-0.128952 0.0599897 0)
(-0.140284 0.00853256 0)
(-0.15214 -0.0516936 0)
(-0.163384 -0.120372 0)
(-0.171625 -0.195073 0)
(-0.172205 -0.269217 0)
(-0.158556 -0.327301 0)
(-0.123512 -0.34271 0)
(-0.0656392 -0.277349 0)
(-0.0100797 -0.116187 0)
(-0.00266431 0.0656276 0)
(-0.0150897 0.148542 0)
(-0.0301888 0.195801 0)
(-0.0436964 0.216365 0)
(-0.0540842 0.220053 0)
(-0.0615618 0.212267 0)
(-0.0666432 0.196666 0)
(-0.0703867 0.174668 0)
(-0.0737749 0.146699 0)
(-0.0778539 0.112406 0)
(-0.0835504 0.071065 0)
(-0.0916079 0.0216771 0)
(-0.10249 -0.036822 0)
(-0.115878 -0.105328 0)
(-0.130476 -0.183385 0)
(-0.142195 -0.267364 0)
(-0.144439 -0.344127 0)
(-0.12557 -0.385625 0)
(-0.0775355 -0.337274 0)
(-0.0144679 -0.155954 0)
(-0.0044092 0.0754619 0)
(-0.0198537 0.162899 0)
(-0.0339162 0.20932 0)
(-0.0433145 0.22599 0)
(-0.0467312 0.225864 0)
(-0.0459137 0.214976 0)
(-0.0419649 0.197532 0)
(-0.0366583 0.17499 0)
(-0.031342 0.147791 0)
(-0.0274317 0.115515 0)
(-0.0261949 0.0773302 0)
(-0.0287982 0.032028 0)
(-0.0363387 -0.0218771 0)
(-0.0493443 -0.086195 0)
(-0.0679676 -0.162287 0)
(-0.0894205 -0.250027 0)
(-0.108919 -0.34095 0)
(-0.111728 -0.410625 0)
(-0.0844213 -0.392017 0)
(-0.0199781 -0.20401 0)
(-0.0080223 0.0882224 0)
(-0.03006 0.177387 0)
(-0.0425224 0.219196 0)
(-0.0457592 0.228549 0)
(-0.0389721 0.2226 0)
(-0.0267371 0.207674 0)
(-0.0108659 0.188211 0)
(0.0059987 0.16545 0)
(0.0222265 0.13969 0)
(0.0361207 0.110407 0)
(0.0461929 0.0767046 0)
(0.0509799 0.037312 0)
(0.0488835 -0.00940667 0)
(0.038653 -0.0657081 0)
(0.0186376 -0.134208 0)
(-0.0100642 -0.217955 0)
(-0.0462357 -0.314583 0)
(-0.0743381 -0.408733 0)
(-0.079637 -0.430265 0)
(-0.0257379 -0.257131 0)
(-0.0146334 0.114323 0)
(-0.045317 0.197585 0)
(-0.0518302 0.22664 0)
(-0.0435932 0.222236 0)
(-0.0210929 0.207287 0)
(0.00691052 0.187201 0)
(0.0380954 0.165738 0)
(0.069024 0.143398 0)
(0.0980086 0.120036 0)
(0.123264 0.0949325 0)
(0.143266 0.0671253 0)
(0.156438 0.0353986 0)
(0.160899 -0.00181362 0)
(0.1549 -0.0467351 0)
(0.135574 -0.102494 0)
(0.102322 -0.174113 0)
(0.0517207 -0.265191 0)
(-0.00271695 -0.373455 0)
(-0.0517894 -0.439042 0)
(-0.0285086 -0.309886 0)
(-0.0256233 0.141901 0)
(-0.0656423 0.209162 0)
(-0.0481057 0.216675 0)
(-0.0147816 0.195403 0)
(0.0338444 0.171717 0)
(0.0836497 0.148334 0)
(0.1333 0.126979 0)
(0.179433 0.107146 0)
(0.220995 0.0880776 0)
(0.256639 0.0688897 0)
(0.285198 0.048625 0)
(0.305297 0.0262574 0)
(0.315119 0.00050102 0)
(0.312691 -0.0303783 0)
(0.294508 -0.0692067 0)
(0.258498 -0.121004 0)
(0.196888 -0.193189 0)
(0.118625 -0.29639 0)
(0.0177377 -0.395428 0)
(-0.0171829 -0.338949 0)
(-0.0187415 0.214609 0)
(-0.019788 0.215342 0)
(0.0566133 0.181545 0)
(0.128619 0.140317 0)
(0.205438 0.110436 0)
(0.27357 0.0881837 0)
(0.335104 0.0709488 0)
(0.388636 0.0570226 0)
(0.434516 0.0449848 0)
(0.472487 0.0338728 0)
(0.502154 0.0228665 0)
(0.52273 0.0112597 0)
(0.53291 -0.00177867 0)
(0.530942 -0.0172326 0)
(0.513667 -0.0371028 0)
(0.478106 -0.0648055 0)
(0.414546 -0.108573 0)
(0.323905 -0.186715 0)
(0.173152 -0.296552 0)
(0.0429715 -0.335034 0)
(0.211337 0.129547 0)
(0.297296 0.100942 0)
(0.451196 0.0674635 0)
(0.543298 0.0443072 0)
(0.618046 0.0290747 0)
(0.673917 0.0198384 0)
(0.717821 0.0138387 0)
(0.752399 0.00979765 0)
(0.779627 0.00682572 0)
(0.800505 0.00442875 0)
(0.815468 0.00227665 0)
(0.824465 0.00014993 0)
(0.826999 -0.00217357 0)
(0.822071 -0.00488233 0)
(0.807804 -0.0085226 0)
(0.781221 -0.0136916 0)
(0.734291 -0.0229002 0)
(0.658593 -0.0407289 0)
(0.49816 -0.074369 0)
(0.288346 -0.136216 0)
)
;

boundaryField
{
    movingWall
    {
        type            fixedValue;
        value           uniform (1 0 0);
    }
    fixedWalls
    {
        type            noSlip;
    }
    frontAndBack
    {
        type            empty;
    }
}


// ************************************************************************* //
