/*--------------------------------*- C++ -*----------------------------------*\
| =========                 |                                                 |
| \\      /  F ield         | OpenFOAM: The Open Source CFD Toolbox           |
|  \\    /   O peration     | Version:  4.1                                   |
|   \\  /    A nd           | Web:      www.OpenFOAM.org                      |
|    \\/     M anipulation  |                                                 |
\*---------------------------------------------------------------------------*/
FoamFile
{
    version     2.0;
    format      ascii;
    class       volVectorField;
    location    "0.036";
    object      U;
}
// * * * * * * * * * * * * * * * * * * * * * * * * * * * * * * * * * * * * * //

dimensions      [0 1 -1 0 0 0 0];

internalField   nonuniform List<vector> 
1600
(
(7.55105e-06 -8.77834e-06 0)
(-9.4395e-06 3.88595e-05 0)
(-0.000108671 0.000118736 0)
(-0.000305381 0.000207792 0)
(-0.000599864 0.000293249 0)
(-0.000982777 0.00036817 0)
(-0.00143966 0.00042891 0)
(-0.00195351 0.00047383 0)
(-0.00250645 0.000502531 0)
(-0.00308073 0.000515392 0)
(-0.00365941 0.000513273 0)
(-0.00422671 0.000497321 0)
(-0.00476825 0.00046885 0)
(-0.0052712 0.000429257 0)
(-0.00572428 0.000379971 0)
(-0.00611778 0.000322428 0)
(-0.00644358 0.000258051 0)
(-0.00669511 0.000188258 0)
(-0.00686729 0.00011446 0)
(-0.00695661 3.80784e-05 0)
(-0.00696105 -3.94461e-05 0)
(-0.00688018 -0.000116635 0)
(-0.00671515 -0.000191965 0)
(-0.00646876 -0.000263858 0)
(-0.00614552 -0.000330679 0)
(-0.00575174 -0.000390749 0)
(-0.00529553 -0.000442357 0)
(-0.00478686 -0.000483787 0)
(-0.00423756 -0.000513365 0)
(-0.00366127 -0.000529511 0)
(-0.00307329 -0.000530819 0)
(-0.00249041 -0.000516152 0)
(-0.00193054 -0.000484788 0)
(-0.00141222 -0.000436608 0)
(-0.000953858 -0.000372382 0)
(-0.000572596 -0.000294211 0)
(-0.000282578 -0.000206246 0)
(-9.23592e-05 -0.000115897 0)
(-4.28699e-07 -3.62301e-05 0)
(9.84805e-06 1.01374e-05 0)
(-4.18811e-05 6.10353e-06 0)
(-0.000227918 0.000219867 0)
(-0.000619997 0.000549226 0)
(-0.00125017 0.000911045 0)
(-0.00211929 0.00125724 0)
(-0.00320586 0.00156053 0)
(-0.0044754 0.00180622 0)
(-0.0058863 0.0019875 0)
(-0.00739384 0.00210254 0)
(-0.00895292 0.00215273 0)
(-0.0105198 0.00214143 0)
(-0.0120534 0.00207326 0)
(-0.0135158 0.00195356 0)
(-0.014873 0.00178804 0)
(-0.016095 0.00158256 0)
(-0.0171558 0.00134304 0)
(-0.0180336 0.00107536 0)
(-0.0187107 0.00078537 0)
(-0.0191737 0.000478908 0)
(-0.0194131 0.000161837 0)
(-0.0194236 -0.000159894 0)
(-0.0192042 -0.000480196 0)
(-0.0187581 -0.000792795 0)
(-0.0180931 -0.00109121 0)
(-0.0172213 -0.00136872 0)
(-0.0161599 -0.00161845 0)
(-0.0149305 -0.00183339 0)
(-0.0135597 -0.00200651 0)
(-0.0120789 -0.00213098 0)
(-0.0105239 -0.00220036 0)
(-0.00893491 -0.00220892 0)
(-0.00735531 -0.00215209 0)
(-0.00583113 -0.002027 0)
(-0.00440937 -0.00183325 0)
(-0.00313602 -0.0015741 0)
(-0.00205307 -0.00125813 0)
(-0.00119435 -0.000901994 0)
(-0.000579634 -0.000534839 0)
(-0.000205315 -0.000206143 0)
(-3.60355e-05 7.96028e-07 0)
(-0.000124051 0.000102397 0)
(-0.000565229 0.000606229 0)
(-0.00131562 0.00128655 0)
(-0.00240928 0.00201151 0)
(-0.00384401 0.00269891 0)
(-0.00558865 0.00329934 0)
(-0.00759408 0.00378491 0)
(-0.00980059 0.00414197 0)
(-0.0121433 0.0043664 0)
(-0.0145562 0.00446037 0)
(-0.0169745 0.00443013 0)
(-0.019337 0.0042846 0)
(-0.0215871 0.00403425 0)
(-0.0236734 0.00369049 0)
(-0.0255505 0.00326512 0)
(-0.0271791 0.00277013 0)
(-0.0285261 0.00221752 0)
(-0.0295646 0.00161927 0)
(-0.030274 0.00098734 0)
(-0.0306401 0.000333782 0)
(-0.030655 -0.000329189 0)
(-0.0303171 -0.00098908 0)
(-0.0296317 -0.00163304 0)
(-0.0286106 -0.00224781 0)
(-0.0272724 -0.00281973 0)
(-0.0256433 -0.00333478 0)
(-0.0237561 -0.00377876 0)
(-0.0216511 -0.00413754 0)
(-0.0193755 -0.00439738 0)
(-0.0169831 -0.00454548 0)
(-0.0145337 -0.00457056 0)
(-0.0120918 -0.00446377 0)
(-0.00972525 -0.0042198 0)
(-0.0075028 -0.00383836 0)
(-0.00549116 -0.00332633 0)
(-0.00375071 -0.00270076 0)
(-0.00232983 -0.00199332 0)
(-0.00125747 -0.00125716 0)
(-0.000532142 -0.000577519 0)
(-0.000115214 -8.77833e-05 0)
(-0.000218815 0.000296943 0)
(-0.000949449 0.00123603 0)
(-0.00208725 0.00237558 0)
(-0.00365822 0.00355034 0)
(-0.0056514 0.00465022 0)
(-0.0080245 0.00560545 0)
(-0.0107151 0.00637489 0)
(-0.0136483 0.00693755 0)
(-0.0167432 0.00728658 0)
(-0.0199167 0.00742482 0)
(-0.0230876 0.00736176 0)
(-0.0261784 0.00711123 0)
(-0.0291172 0.00668981 0)
(-0.0318388 0.0061157 0)
(-0.0342852 0.00540801 0)
(-0.0364061 0.00458619 0)
(-0.0381592 0.00366984 0)
(-0.0395102 0.0026786 0)
(-0.0404327 0.00163214 0)
(-0.0409084 0.000550277 0)
(-0.0409273 -0.000546884 0)
(-0.0404876 -0.0016388 0)
(-0.039596 -0.00270436 0)
(-0.0382676 -0.00372183 0)
(-0.0365267 -0.00466886 0)
(-0.0344064 -0.00552259 0)
(-0.0319488 -0.00625996 0)
(-0.0292053 -0.00685805 0)
(-0.0262359 -0.00729477 0)
(-0.0231087 -0.0075496 0)
(-0.0198995 -0.0076047 0)
(-0.0166897 -0.00744627 0)
(-0.0135643 -0.00706627 0)
(-0.0106098 -0.00646474 0)
(-0.00790964 -0.00565281 0)
(-0.00553967 -0.00465681 0)
(-0.00356172 -0.00352387 0)
(-0.00201563 -0.00232979 0)
(-0.000908093 -0.0011899 0)
(-0.000207516 -0.000273008 0)
(-0.000316392 0.000595021 0)
(-0.00134472 0.00212483 0)
(-0.00287761 0.00383817 0)
(-0.00492809 0.0055494 0)
(-0.00747199 0.00712817 0)
(-0.0104534 0.00848822 0)
(-0.0137959 0.0095769 0)
(-0.0174105 0.0103666 0)
(-0.0212016 0.0108481 0)
(-0.0250721 0.0110253 0)
(-0.0289266 0.0109114 0)
(-0.0326744 0.0105257 0)
(-0.0362311 0.00989189 0)
(-0.0395201 0.00903597 0)
(-0.0424732 0.00798543 0)
(-0.0450313 0.00676846 0)
(-0.0471445 0.00541355 0)
(-0.0487724 0.00394931 0)
(-0.0498839 0.00240448 0)
(-0.0504575 0.000808017 0)
(-0.0504815 -0.000810664 0)
(-0.0499536 -0.00242154 0)
(-0.0488817 -0.00399378 0)
(-0.0472838 -0.0054957 0)
(-0.0451882 -0.00689473 0)
(-0.0426337 -0.00815769 0)
(-0.0396701 -0.00925111 0)
(-0.0363573 -0.0101419 0)
(-0.0327659 -0.0107982 0)
(-0.0289759 -0.0111907 0)
(-0.0250759 -0.0112939 0)
(-0.0211612 -0.0110882 0)
(-0.0173318 -0.0105626 0)
(-0.013689 -0.00971695 0)
(-0.0103314 -0.00856661 0)
(-0.00734983 -0.00714666 0)
(-0.0048202 -0.00551834 0)
(-0.00279604 -0.00377673 0)
(-0.00129679 -0.00206022 0)
(-0.000303021 -0.000560648 0)
(-0.000412641 0.000995672 0)
(-0.00173529 0.00327439 0)
(-0.0036605 0.00567989 0)
(-0.00618664 0.00801558 0)
(-0.0092737 0.0101378 0)
(-0.0128498 0.0119483 0)
(-0.0168235 0.0133858 0)
(-0.0210909 0.0144179 0)
(-0.0255429 0.0150339 0)
(-0.030069 0.0152398 0)
(-0.0345616 0.0150532 0)
(-0.0389184 0.0145001 0)
(-0.0430446 0.0136118 0)
(-0.046854 0.0124233 0)
(-0.0502702 0.0109714 0)
(-0.0532268 0.00929416 0)
(-0.0556679 0.00743005 0)
(-0.057548 0.00541777 0)
(-0.0588324 0.00329624 0)
(-0.0594969 0.00110473 0)
(-0.0595281 -0.00111691 0)
(-0.0589235 -0.00332799 0)
(-0.0576917 -0.00548674 0)
(-0.0558527 -0.00755025 0)
(-0.0534379 -0.00947449 0)
(-0.0504909 -0.0112146 0)
(-0.0470669 -0.0127254 0)
(-0.0432333 -0.0139624 0)
(-0.039069 -0.0148825 0)
(-0.0346638 -0.0154465 0)
(-0.0301173 -0.0156201 0)
(-0.0255372 -0.0153771 0)
(-0.0210366 -0.0147022 0)
(-0.0167309 -0.0135947 0)
(-0.0127335 -0.012073 0)
(-0.0091505 -0.0101795 0)
(-0.00607369 -0.00798705 0)
(-0.00357268 -0.00560608 0)
(-0.0016825 -0.00319176 0)
(-0.000397565 -0.000950229 0)
(-0.000506336 0.00149582 0)
(-0.00211642 0.00468114 0)
(-0.00442793 0.00789951 0)
(-0.0074246 0.0109495 0)
(-0.0110493 0.0136798 0)
(-0.0152125 0.0159847 0)
(-0.019806 0.0177974 0)
(-0.0247109 0.0190828 0)
(-0.0298035 0.0198312 0)
(-0.0349609 0.0200517 0)
(-0.0400637 0.0197677 0)
(-0.0449994 0.0190127 0)
(-0.049664 0.017827 0)
(-0.0539633 0.0162553 0)
(-0.057814 0.0143451 0)
(-0.0611436 0.0121451 0)
(-0.0638914 0.00970464 0)
(-0.0660079 0.0070735 0)
(-0.0674554 0.00430168 0)
(-0.0682074 0.00143963 0)
(-0.0682493 -0.00146141 0)
(-0.0675779 -0.00434915 0)
(-0.0662023 -0.00716994 0)
(-0.0641436 -0.00986862 0)
(-0.0614358 -0.0123886 0)
(-0.0581256 -0.0146722 0)
(-0.0542729 -0.0166613 0)
(-0.0499506 -0.0182986 0)
(-0.0452448 -0.0195289 0)
(-0.0402536 -0.0203012 0)
(-0.0350865 -0.0205716 0)
(-0.0298623 -0.0203056 0)
(-0.0247068 -0.0194827 0)
(-0.0197494 -0.0180999 0)
(-0.0151188 -0.0161768 0)
(-0.0109375 -0.0137612 0)
(-0.00731491 -0.0109349 0)
(-0.0043387 -0.00781976 0)
(-0.00206094 -0.00458281 0)
(-0.000490025 -0.00143928 0)
(-0.000597813 0.00209234 0)
(-0.00248939 0.00634063 0)
(-0.00518241 0.0104943 0)
(-0.00864662 0.0143507 0)
(-0.0128071 0.017755 0)
(-0.0175556 0.0205978 0)
(-0.0227659 0.0228104 0)
(-0.0283026 0.024358 0)
(-0.0340275 0.0252334 0)
(-0.0398045 0.0254514 0)
(-0.0455032 0.0250424 0)
(-0.0510013 0.0240491 0)
(-0.0561865 0.0225219 0)
(-0.0609576 0.0205167 0)
(-0.0652253 0.018092 0)
(-0.0689125 0.0153085 0)
(-0.0719544 0.0122272 0)
(-0.0742985 0.00890963 0)
(-0.0759043 0.00541762 0)
(-0.0767437 0.00181349 0)
(-0.0768006 -0.00183951 0)
(-0.0760714 -0.00547678 0)
(-0.074565 -0.00903202 0)
(-0.0723033 -0.012437 0)
(-0.0693216 -0.0156217 0)
(-0.0656689 -0.0185145 0)
(-0.0614084 -0.0210434 0)
(-0.0566177 -0.0231368 0)
(-0.0513887 -0.024726 0)
(-0.045827 -0.0257471 0)
(-0.040051 -0.0261444 0)
(-0.0341903 -0.0258739 0)
(-0.0283834 -0.0249077 0)
(-0.022774 -0.0232386 0)
(-0.0175072 -0.0208855 0)
(-0.0127235 -0.017899 0)
(-0.0085515 -0.0143669 0)
(-0.00509842 -0.010419 0)
(-0.00243428 -0.00623139 0)
(-0.00058094 -0.00202546 0)
(-0.000688203 0.00278315 0)
(-0.00285862 0.00825024 0)
(-0.00593217 0.0134633 0)
(-0.0098652 0.0182206 0)
(-0.0145647 0.0223666 0)
(-0.0199026 0.0257917 0)
(-0.0257337 0.0284283 0)
(-0.0319049 0.030245 0)
(-0.0382625 0.0312401 0)
(-0.0446573 0.0314358 0)
(-0.0509474 0.0308721 0)
(-0.0570011 0.0296021 0)
(-0.0626986 0.0276882 0)
(-0.0679324 0.0251981 0)
(-0.0726081 0.0222033 0)
(-0.0766448 0.0187766 0)
(-0.0799745 0.0149918 0)
(-0.082542 0.0109226 0)
(-0.0843051 0.00664332 0)
(-0.0852341 0.00222847 0)
(-0.0853116 -0.00224617 0)
(-0.0845332 -0.00670324 0)
(-0.0829074 -0.0110633 0)
(-0.0804559 -0.0152444 0)
(-0.0772148 -0.0191622 0)
(-0.0732342 -0.0227306 0)
(-0.0685799 -0.0258621 0)
(-0.0633328 -0.0284699 0)
(-0.0575898 -0.03047 0)
(-0.051463 -0.0317838 0)
(-0.0450796 -0.0323422 0)
(-0.0385797 -0.0320893 0)
(-0.0321147 -0.0309876 0)
(-0.0258437 -0.0290233 0)
(-0.0199293 -0.026212 0)
(-0.0145315 -0.0226043 0)
(-0.00979976 -0.0182911 0)
(-0.00586244 -0.0134082 0)
(-0.00280813 -0.00813807 0)
(-0.000671723 -0.00270778 0)
(-0.000779009 0.00356772 0)
(-0.00323004 0.0104105 0)
(-0.00668826 0.0168096 0)
(-0.0110969 0.0225647 0)
(-0.0163444 0.0275221 0)
(-0.022282 0.0315747 0)
(-0.0287441 0.0346594 0)
(-0.0355591 0.036751 0)
(-0.0425569 0.0378564 0)
(-0.0495744 0.0380077 0)
(-0.0564582 0.037257 0)
(-0.0630677 0.03567 0)
(-0.0692755 0.0333222 0)
(-0.0749687 0.0302954 0)
(-0.0800488 0.0266744 0)
(-0.0844315 0.0225456 0)
(-0.0880465 0.0179957 0)
(-0.0908369 0.0131116 0)
(-0.0927589 0.00797995 0)
(-0.0937813 0.002688 0)
(-0.0938859 -0.00267581 0)
(-0.0930671 -0.00802114 0)
(-0.0913323 -0.013255 0)
(-0.0887029 -0.0182815 0)
(-0.0852143 -0.0230013 0)
(-0.0809173 -0.0273126 0)
(-0.0758788 -0.0311118 0)
(-0.0701823 -0.0342952 0)
(-0.0639286 -0.036762 0)
(-0.0572359 -0.0384168 0)
(-0.0502394 -0.0391747 0)
(-0.0430901 -0.0389654 0)
(-0.0359526 -0.0377392 0)
(-0.0290025 -0.0354726 0)
(-0.0224211 -0.032175 0)
(-0.0163898 -0.0278941 0)
(-0.0110807 -0.0227216 0)
(-0.00664463 -0.0167967 0)
(-0.00318981 -0.0103075 0)
(-0.000764219 -0.00348718 0)
(-0.000871873 0.00444731 0)
(-0.00361014 0.0128258 0)
(-0.00746284 0.0205407 0)
(-0.0123599 0.0273937 0)
(-0.0181703 0.0332341 0)
(-0.0247237 0.0379603 0)
(-0.0318327 0.0415166 0)
(-0.039306 0.0438875 0)
(-0.0469563 0.0450914 0)
(-0.054606 0.0451739 0)
(-0.0620902 0.0442012 0)
(-0.0692592 0.0422543 0)
(-0.0759788 0.039424 0)
(-0.0821313 0.0358072 0)
(-0.0876147 0.0315035 0)
(-0.0923423 0.0266138 0)
(-0.0962422 0.0212384 0)
(-0.0992564 0.0154773 0)
(-0.10134 0.00943004 0)
(-0.102461 0.00319653 0)
(-0.1026 -0.00312217 0)
(-0.10175 -0.00942273 0)
(-0.0999171 -0.0155986 0)
(-0.0971212 -0.0215395 0)
(-0.0933967 -0.0271308 0)
(-0.0887938 -0.0322543 0)
(-0.0833793 -0.036789 0)
(-0.0772383 -0.0406131 0)
(-0.0704746 -0.0436067 0)
(-0.0632117 -0.0456557 0)
(-0.0555925 -0.0466564 0)
(-0.0477786 -0.0465214 0)
(-0.0399488 -0.0451852 0)
(-0.0322957 -0.0426115 0)
(-0.0250211 -0.0388 0)
(-0.0183293 -0.0337926 0)
(-0.0124173 -0.027679 0)
(-0.00746027 -0.0206002 0)
(-0.0035874 -0.0127493 0)
(-0.000860452 -0.00436678 0)
(-0.000968441 0.00542496 0)
(-0.00400544 0.0155044 0)
(-0.00826819 0.0246693 0)
(-0.0136724 0.0327232 0)
(-0.0200666 0.0395201 0)
(-0.0272569 0.0449664 0)
(-0.0350333 0.0490169 0)
(-0.0431831 0.0516694 0)
(-0.0515012 0.0529575 0)
(-0.059795 0.0529434 0)
(-0.0678878 0.0517108 0)
(-0.0756211 0.0493583 0)
(-0.0828547 0.0459944 0)
(-0.0894665 0.0417329 0)
(-0.0953521 0.0366895 0)
(-0.100423 0.0309801 0)
(-0.104608 0.0247195 0)
(-0.107847 0.0180209 0)
(-0.110095 0.0109968 0)
(-0.11132 0.00375924 0)
(-0.111501 -0.00357814 0)
(-0.11063 -0.0108993 0)
(-0.108711 -0.0180844 0)
(-0.105761 -0.0250086 0)
(-0.101814 -0.0315419 0)
(-0.0969168 -0.0375488 0)
(-0.0911358 -0.0428901 0)
(-0.0845561 -0.0474239 0)
(-0.0772836 -0.0510096 0)
(-0.0694458 -0.0535115 0)
(-0.0611929 -0.0548043 0)
(-0.0526971 -0.0547795 0)
(-0.0441515 -0.0533526 0)
(-0.0357668 -0.0504703 0)
(-0.0277668 -0.0461189 0)
(-0.020381 -0.0403307 0)
(-0.013833 -0.033191 0)
(-0.008325 -0.0248408 0)
(-0.00400914 -0.0154781 0)
(-0.000962488 -0.00535196 0)
(-0.0010703 0.00650543 0)
(-0.00442222 0.0184585 0)
(-0.00911608 0.029213 0)
(-0.0150518 0.0385742 0)
(-0.0220557 0.0464025 0)
(-0.0299087 0.0526148 0)
(-0.038376 0.0571803 0)
(-0.0472229 0.0601137 0)
(-0.056225 0.0614679 0)
(-0.0651745 0.0613255 0)
(-0.0738831 0.0597911 0)
(-0.0821839 0.0569842 0)
(-0.0899311 0.0530331 0)
(-0.0969998 0.0480705 0)
(-0.103284 0.0422296 0)
(-0.108695 0.0356423 0)
(-0.113161 0.028438 0)
(-0.116624 0.0207433 0)
(-0.119039 0.0126832 0)
(-0.120373 0.00438182 0)
(-0.120604 -0.00403551 0)
(-0.119723 -0.0124406 0)
(-0.117731 -0.0207005 0)
(-0.114644 -0.0286765 0)
(-0.110489 -0.0362226 0)
(-0.105313 -0.0431862 0)
(-0.0991792 -0.0494081 0)
(-0.0921705 -0.0547254 0)
(-0.0843935 -0.0589741 0)
(-0.075979 -0.0619942 0)
(-0.0670833 -0.0636352 0)
(-0.0578888 -0.0637637 0)
(-0.0486029 -0.0622713 0)
(-0.0394555 -0.0590836 0)
(-0.0306938 -0.0541687 0)
(-0.0225743 -0.0475459 0)
(-0.0153505 -0.0392923 0)
(-0.00925406 -0.0295475 0)
(-0.00446311 -0.0185136 0)
(-0.00107235 -0.00645038 0)
(-0.00117896 0.00769513 0)
(-0.0048664 0.021704 0)
(-0.0100175 0.034194 0)
(-0.0165143 0.0449721 0)
(-0.0241581 0.0539073 0)
(-0.0327026 0.0609302 0)
(-0.0418862 0.0660281 0)
(-0.0514506 0.0692374 0)
(-0.0611516 0.0706347 0)
(-0.0707656 0.0703274 0)
(-0.0800932 0.0684448 0)
(-0.0889597 0.0651307 0)
(-0.0972152 0.0605359 0)
(-0.104733 0.0548141 0)
(-0.111406 0.0481175 0)
(-0.117148 0.0405947 0)
(-0.121889 0.03239 0)
(-0.125571 0.0236434 0)
(-0.128152 0.0144916 0)
(-0.129598 0.00507009 0)
(-0.129887 -0.00448487 0)
(-0.129009 -0.0140338 0)
(-0.12696 -0.0234319 0)
(-0.123754 -0.0325264 0)
(-0.119414 -0.0411563 0)
(-0.11398 -0.0491508 0)
(-0.107513 -0.0563307 0)
(-0.100091 -0.0625098 0)
(-0.0918212 -0.0674987 0)
(-0.0828342 -0.0711096 0)
(-0.0732917 -0.0731631 0)
(-0.0633853 -0.0734962 0)
(-0.0533367 -0.0719717 0)
(-0.0433952 -0.0684883 0)
(-0.0338331 -0.062991 0)
(-0.0249363 -0.0554811 0)
(-0.0169909 -0.0460241 0)
(-0.0102619 -0.0347553 0)
(-0.00495705 -0.0218808 0)
(-0.00119199 -0.00767181 0)
(-0.00129583 0.00900197 0)
(-0.00534349 0.0252601 0)
(-0.0109826 0.0396382 0)
(-0.018074 0.0519462 0)
(-0.0263913 0.0620636 0)
(-0.0356577 0.0699387 0)
(-0.0455828 0.0755817 0)
(-0.055883 0.0790558 0)
(-0.0662935 0.0804667 0)
(-0.0765752 0.0799513 0)
(-0.0865178 0.0776686 0)
(-0.0959403 0.0737898 0)
(-0.10469 0.0684918 0)
(-0.112639 0.0619513 0)
(-0.119684 0.0543407 0)
(-0.125741 0.0458263 0)
(-0.130741 0.0365673 0)
(-0.134633 0.0267167 0)
(-0.137374 0.0164223 0)
(-0.138934 0.00582961 0)
(-0.139289 -0.00491544 0)
(-0.138426 -0.0156635 0)
(-0.13634 -0.0262586 0)
(-0.133039 -0.0365358 0)
(-0.128541 -0.0463187 0)
(-0.122879 -0.0554191 0)
(-0.116107 -0.0636365 0)
(-0.108299 -0.0707602 0)
(-0.0995574 -0.0765729 0)
(-0.0900122 -0.0808556 0)
(-0.0798278 -0.0833956 0)
(-0.0692038 -0.0839948 0)
(-0.0583752 -0.0824814 0)
(-0.0476113 -0.078721 0)
(-0.0372103 -0.0726292 0)
(-0.0274903 -0.0641834 0)
(-0.0187734 -0.0534327 0)
(-0.011362 -0.0405049 0)
(-0.00549826 -0.0256088 0)
(-0.00132326 -0.00902811 0)
(-0.00142225 0.0104352 0)
(-0.00585863 0.0291489 0)
(-0.0120204 0.0455752 0)
(-0.0197436 0.0595282 0)
(-0.0287697 0.0709015 0)
(-0.0387882 0.0796657 0)
(-0.0494774 0.0858596 0)
(-0.0605267 0.0895795 0)
(-0.0716501 0.090966 0)
(-0.0825933 0.0901918 0)
(-0.0931361 0.08745 0)
(-0.103093 0.0829441 0)
(-0.112309 0.07688 0)
(-0.120661 0.0694597 0)
(-0.128048 0.0608776 0)
(-0.134392 0.0513181 0)
(-0.139629 0.0409554 0)
(-0.143712 0.0299543 0)
(-0.146603 0.0184729 0)
(-0.148273 0.00666522 0)
(-0.148699 -0.005315 0)
(-0.147866 -0.0173102 0)
(-0.145767 -0.0291552 0)
(-0.142401 -0.0406739 0)
(-0.13778 -0.0516761 0)
(-0.13193 -0.061956 0)
(-0.124894 -0.0712917 0)
(-0.11674 -0.0794468 0)
(-0.107562 -0.0861734 0)
(-0.0974868 -0.091218 0)
(-0.0866788 -0.0943293 0)
(-0.0753429 -0.0952686 0)
(-0.0637266 -0.0938223 0)
(-0.0521184 -0.0898153 0)
(-0.0408438 -0.0831264 0)
(-0.0302551 -0.0737018 0)
(-0.0207142 -0.0615683 0)
(-0.0125664 -0.0468417 0)
(-0.00609353 -0.0297311 0)
(-0.00146791 -0.0105331 0)
(-0.00155948 0.0120056 0)
(-0.00641665 0.0333951 0)
(-0.0131393 0.0520372 0)
(-0.0215336 0.0677519 0)
(-0.0313042 0.0804513 0)
(-0.0421027 0.0901342 0)
(-0.0535732 0.0968754 0)
(-0.0653765 0.100811 0)
(-0.0772052 0.102125 0)
(-0.0887901 0.101032 0)
(-0.0999033 0.0977641 0)
(-0.110356 0.0925629 0)
(-0.119997 0.0856664 0)
(-0.128706 0.0773048 0)
(-0.13639 0.0676953 0)
(-0.142978 0.0570412 0)
(-0.148416 0.0455311 0)
(-0.152662 0.033341 0)
(-0.155684 0.0206373 0)
(-0.157456 0.00758043 0)
(-0.157957 -0.00566993 0)
(-0.15717 -0.0189505 0)
(-0.155083 -0.0320891 0)
(-0.151689 -0.0449006 0)
(-0.146992 -0.0571823 0)
(-0.141005 -0.0687121 0)
(-0.133763 -0.0792467 0)
(-0.125319 -0.0885228 0)
(-0.115758 -0.0962597 0)
(-0.1052 -0.102166 0)
(-0.0938044 -0.105945 0)
(-0.0817794 -0.107313 0)
(-0.0693818 -0.106005 0)
(-0.0569188 -0.101797 0)
(-0.0447432 -0.0945218 0)
(-0.0332438 -0.0840851 0)
(-0.0228268 -0.0704833 0)
(-0.0138855 -0.0538146 0)
(-0.00674906 -0.0342846 0)
(-0.00162755 -0.0122023 0)
(-0.00170881 0.0137248 0)
(-0.00702222 0.0380257 0)
(-0.0143468 0.059058 0)
(-0.0234527 0.0766509 0)
(-0.0340018 0.0907407 0)
(-0.0456032 0.101362 0)
(-0.0578636 0.108634 0)
(-0.0704137 0.112743 0)
(-0.0829245 0.113923 0)
(-0.0951137 0.112438 0)
(-0.106748 0.108569 0)
(-0.117638 0.102598 0)
(-0.12764 0.0948 0)
(-0.13664 0.0854353 0)
(-0.144556 0.0747458 0)
(-0.15133 0.0629535 0)
(-0.156916 0.0502608 0)
(-0.161284 0.0368534 0)
(-0.164408 0.0229038 0)
(-0.166267 0.00857675 0)
(-0.166843 -0.00596532 0)
(-0.166117 -0.0205562 0)
(-0.164073 -0.0350197 0)
(-0.160696 -0.0491641 0)
(-0.155979 -0.0627767 0)
(-0.149924 -0.0756206 0)
(-0.142549 -0.0874318 0)
(-0.133893 -0.0979195 0)
(-0.124026 -0.106768 0)
(-0.113055 -0.113644 0)
(-0.101132 -0.118204 0)
(-0.0884631 -0.120105 0)
(-0.0753109 -0.119025 0)
(-0.0619989 -0.114681 0)
(-0.0489071 -0.106847 0)
(-0.0364628 -0.0953781 0)
(-0.0251205 -0.08023 0)
(-0.0153283 -0.0614748 0)
(-0.00747046 -0.0393094 0)
(-0.00180372 -0.0140532 0)
(-0.00187152 0.015606 0)
(-0.00768 0.0430697 0)
(-0.01565 0.0666726 0)
(-0.0255077 0.0862577 0)
(-0.0368656 0.101793 0)
(-0.0492849 0.113359 0)
(-0.062331 0.121129 0)
(-0.0756037 0.125351 0)
(-0.088753 0.12632 0)
(-0.101486 0.124359 0)
(-0.113566 0.119802 0)
(-0.12481 0.11298 0)
(-0.135081 0.104208 0)
(-0.144281 0.0937803 0)
(-0.152343 0.0819631 0)
(-0.159221 0.0689973 0)
(-0.164886 0.0550979 0)
(-0.169319 0.0404582 0)
(-0.172504 0.0252546 0)
(-0.174428 0.00965283 0)
(-0.175074 -0.0061853 0)
(-0.174424 -0.0220942 0)
(-0.172456 -0.0378972 0)
(-0.169149 -0.0533994 0)
(-0.164483 -0.0683815 0)
(-0.158443 -0.0825938 0)
(-0.151031 -0.0957533 0)
(-0.142265 -0.107542 0)
(-0.132195 -0.117608 0)
(-0.120911 -0.125572 0)
(-0.108551 -0.131036 0)
(-0.095312 -0.133594 0)
(-0.0814585 -0.132855 0)
(-0.0673263 -0.128463 0)
(-0.0533213 -0.120121 0)
(-0.0399103 -0.107618 0)
(-0.0276002 -0.0908576 0)
(-0.0169014 -0.0698738 0)
(-0.00826267 -0.0448474 0)
(-0.0019978 -0.0161043 0)
(-0.002049 0.0176637 0)
(-0.00839486 0.0485577 0)
(-0.0170554 0.0749161 0)
(-0.0277039 0.0966017 0)
(-0.0398946 0.113624 0)
(-0.0531346 0.126122 0)
(-0.0669452 0.134338 0)
(-0.080894 0.138592 0)
(-0.0946118 0.139253 0)
(-0.107798 0.136714 0)
(-0.120218 0.131373 0)
(-0.131699 0.123613 0)
(-0.14212 0.113794 0)
(-0.1514 0.102245 0)
(-0.159491 0.0892598 0)
(-0.166368 0.0750961 0)
(-0.172021 0.0599803 0)
(-0.176444 0.0441106 0)
(-0.179635 0.027664 0)
(-0.18159 0.0108035 0)
(-0.182296 -0.00631346 0)
(-0.181735 -0.0235263 0)
(-0.179882 -0.0406621 0)
(-0.176706 -0.0575274 0)
(-0.172173 -0.0738996 0)
(-0.166251 -0.0895202 0)
(-0.15892 -0.104089 0)
(-0.150174 -0.117263 0)
(-0.140038 -0.128653 0)
(-0.128576 -0.137831 0)
(-0.115904 -0.144338 0)
(-0.102206 -0.147697 0)
(-0.087739 -0.147437 0)
(-0.072846 -0.143113 0)
(-0.0579557 -0.134342 0)
(-0.0435744 -0.12083 0)
(-0.0302655 -0.102409 0)
(-0.0186092 -0.0790619 0)
(-0.00912985 -0.0509418 0)
(-0.00221108 -0.018376 0)
(-0.00224282 0.0199137 0)
(-0.00917215 0.0545218 0)
(-0.0185698 0.0838228 0)
(-0.0300446 0.107707 0)
(-0.0430826 0.126239 0)
(-0.05713 0.139632 0)
(-0.0716606 0.148213 0)
(-0.0862102 0.152394 0)
(-0.100393 0.152629 0)
(-0.113906 0.149395 0)
(-0.126523 0.14316 0)
(-0.138087 0.134369 0)
(-0.1485 0.123429 0)
(-0.157704 0.110708 0)
(-0.165679 0.0965239 0)
(-0.172423 0.0811527 0)
(-0.177946 0.0648287 0)
(-0.182265 0.0477522 0)
(-0.185392 0.0300968 0)
(-0.187332 0.0120188 0)
(-0.18808 -0.00633369 0)
(-0.18762 -0.0248097 0)
(-0.185922 -0.0432454 0)
(-0.182946 -0.0614535 0)
(-0.178643 -0.0792134 0)
(-0.172961 -0.0962621 0)
(-0.165855 -0.112287 0)
(-0.15729 -0.12692 0)
(-0.14726 -0.139737 0)
(-0.135795 -0.15026 0)
(-0.122983 -0.157963 0)
(-0.10898 -0.16229 0)
(-0.0940301 -0.162675 0)
(-0.0784751 -0.15857 0)
(-0.0627606 -0.149485 0)
(-0.0474311 -0.13502 0)
(-0.0331092 -0.114917 0)
(-0.020453 -0.0890849 0)
(-0.0100753 -0.0576362 0)
(-0.00244467 -0.0208895 0)
(-0.00245482 0.0223735 0)
(-0.010018 0.0609957 0)
(-0.0202001 0.0934248 0)
(-0.0325314 0.119591 0)
(-0.0464177 0.13963 0)
(-0.0612373 0.153849 0)
(-0.0764136 0.162684 0)
(-0.0914521 0.166654 0)
(-0.105955 0.166321 0)
(-0.119624 0.162254 0)
(-0.13225 0.155004 0)
(-0.1437 0.145083 0)
(-0.153905 0.132952 0)
(-0.162841 0.119015 0)
(-0.170518 0.103616 0)
(-0.176964 0.0870456 0)
(-0.182218 0.069544 0)
(-0.186315 0.0513092 0)
(-0.189289 0.0325071 0)
(-0.191156 0.0132824 0)
(-0.191921 -0.00623116 0)
(-0.19157 -0.0258978 0)
(-0.190068 -0.0455684 0)
(-0.187368 -0.0650679 0)
(-0.183404 -0.0841837 0)
(-0.178105 -0.102654 0)
(-0.171394 -0.120158 0)
(-0.163206 -0.13631 0)
(-0.153493 -0.150649 0)
(-0.142247 -0.162648 0)
(-0.129514 -0.171712 0)
(-0.115415 -0.177195 0)
(-0.100166 -0.178423 0)
(-0.0840968 -0.174728 0)
(-0.0676625 -0.165486 0)
(-0.0514409 -0.150169 0)
(-0.0361156 -0.128396 0)
(-0.0224304 -0.0999815 0)
(-0.0111011 -0.0649724 0)
(-0.00269952 -0.0236674 0)
(-0.00268717 0.0250626 0)
(-0.0109394 0.0680144 0)
(-0.0219536 0.103751 0)
(-0.0351633 0.132258 0)
(-0.0498807 0.153766 0)
(-0.065408 0.168704 0)
(-0.0811171 0.17764 0)
(-0.0964865 0.181228 0)
(-0.111115 0.180153 0)
(-0.124717 0.175096 0)
(-0.13711 0.1667 0)
(-0.148199 0.15555 0)
(-0.157951 0.142162 0)
(-0.166384 0.126977 0)
(-0.173545 0.110366 0)
(-0.179498 0.0926284 0)
(-0.184312 0.0740064 0)
(-0.188049 0.0546916 0)
(-0.190763 0.0348372 0)
(-0.192487 0.0145707 0)
(-0.193233 -0.00599371 0)
(-0.192992 -0.0267417 0)
(-0.19173 -0.0475448 0)
(-0.189387 -0.0682471 0)
(-0.185884 -0.0886507 0)
(-0.181127 -0.108502 0)
(-0.175009 -0.12748 0)
(-0.167425 -0.145185 0)
(-0.158285 -0.161127 0)
(-0.14753 -0.174729 0)
(-0.135153 -0.185324 0)
(-0.121227 -0.192171 0)
(-0.105925 -0.194476 0)
(-0.0895521 -0.191425 0)
(-0.0725572 -0.182238 0)
(-0.0555449 -0.166222 0)
(-0.0392582 -0.142842 0)
(-0.0245342 -0.111779 0)
(-0.0122079 -0.0729898 0)
(-0.00297631 -0.0267327 0)
(-0.0029425 0.0280033 0)
(-0.011945 0.0756139 0)
(-0.0238377 0.114825 0)
(-0.0379357 0.145699 0)
(-0.0534414 0.168593 0)
(-0.0695738 0.184091 0)
(-0.0856534 0.192929 0)
(-0.101139 0.19592 0)
(-0.115636 0.193901 0)
(-0.128887 0.187677 0)
(-0.140748 0.177993 0)
(-0.151171 0.165515 0)
(-0.160175 0.150815 0)
(-0.167826 0.134371 0)
(-0.174215 0.116572 0)
(-0.179447 0.0977277 0)
(-0.183626 0.0780744 0)
(-0.186843 0.0577922 0)
(-0.189172 0.0370164 0)
(-0.190667 0.0158516 0)
(-0.19135 -0.00561354 0)
(-0.191217 -0.0272919 0)
(-0.190233 -0.0490827 0)
(-0.188332 -0.0708559 0)
(-0.185422 -0.0924362 0)
(-0.181382 -0.113587 0)
(-0.176077 -0.133995 0)
(-0.16936 -0.153254 0)
(-0.161091 -0.170854 0)
(-0.151151 -0.186172 0)
(-0.139471 -0.198471 0)
(-0.126057 -0.206908 0)
(-0.111024 -0.210554 0)
(-0.0946296 -0.208433 0)
(-0.077302 -0.199573 0)
(-0.059658 -0.18308 0)
(-0.0424956 -0.158216 0)
(-0.0267505 -0.124489 0)
(-0.0133942 -0.0817223 0)
(-0.00327528 -0.0301092 0)
(-0.00322388 0.0312207 0)
(-0.0130441 0.0838316 0)
(-0.025859 0.126662 0)
(-0.0408375 0.159883 0)
(-0.0570541 0.18402 0)
(-0.0736383 0.199858 0)
(-0.0898637 0.208338 0)
(-0.105181 0.210474 0)
(-0.119217 0.207273 0)
(-0.13176 0.199687 0)
(-0.142722 0.188572 0)
(-0.152117 0.174675 0)
(-0.160026 0.158625 0)
(-0.166571 0.140932 0)
(-0.171896 0.122003 0)
(-0.17615 0.102144 0)
(-0.179474 0.0815853 0)
(-0.18199 0.060487 0)
(-0.183796 0.0389608 0)
(-0.184964 0.017083 0)
(-0.185528 -0.00508921 0)
(-0.185493 -0.027502 0)
(-0.184825 -0.0500885 0)
(-0.183452 -0.0727521 0)
(-0.181268 -0.0953486 0)
(-0.178134 -0.117668 0)
(-0.173882 -0.139413 0)
(-0.168323 -0.160186 0)
(-0.161262 -0.179462 0)
(-0.152516 -0.196585 0)
(-0.141939 -0.210749 0)
(-0.129454 -0.22101 0)
(-0.115095 -0.226294 0)
(-0.0990508 -0.22544 0)
(-0.0817029 -0.21725 0)
(-0.063661 -0.200581 0)
(-0.0457662 -0.17444 0)
(-0.0290554 -0.138098 0)
(-0.0146548 -0.0911961 0)
(-0.00359595 -0.0338209 0)
(-0.00353473 0.0347443 0)
(-0.0142471 0.0927049 0)
(-0.0280211 0.139266 0)
(-0.0438459 0.174751 0)
(-0.060648 0.19991 0)
(-0.0774642 0.215788 0)
(-0.0935306 0.223587 0)
(-0.108308 0.224556 0)
(-0.121469 0.219907 0)
(-0.132866 0.210749 0)
(-0.142491 0.198061 0)
(-0.150434 0.182671 0)
(-0.156848 0.165258 0)
(-0.161924 0.146362 0)
(-0.165861 0.126394 0)
(-0.168856 0.105656 0)
(-0.171086 0.0843576 0)
(-0.172707 0.0626367 0)
(-0.17384 0.0405742 0)
(-0.174573 0.0182126 0)
(-0.174957 -0.00442771 0)
(-0.175002 -0.0273315 0)
(-0.174679 -0.050472 0)
(-0.173914 -0.073793 0)
(-0.172592 -0.0971897 0)
(-0.170555 -0.120488 0)
(-0.167607 -0.143422 0)
(-0.163519 -0.16561 0)
(-0.158041 -0.186532 0)
(-0.150916 -0.205506 0)
(-0.141912 -0.221674 0)
(-0.130854 -0.233991 0)
(-0.117671 -0.241233 0)
(-0.10245 -0.242033 0)
(-0.0854982 -0.234935 0)
(-0.0673861 -0.21849 0)
(-0.0489789 -0.191379 0)
(-0.0314104 -0.152563 0)
(-0.015979 -0.101425 0)
(-0.00393657 -0.0378916 0)
(-0.00387847 0.0386082 0)
(-0.0155632 0.10227 0)
(-0.03032 0.15262 0)
(-0.046917 0.190198 0)
(-0.0641122 0.216061 0)
(-0.0808519 0.231587 0)
(-0.0963536 0.238303 0)
(-0.110116 0.237744 0)
(-0.121887 0.231351 0)
(-0.131614 0.22041 0)
(-0.139387 0.20602 0)
(-0.145392 0.18909 0)
(-0.149869 0.170341 0)
(-0.153079 0.150328 0)
(-0.155281 0.129459 0)
(-0.15672 0.10802 0)
(-0.15761 0.0861954 0)
(-0.158135 0.0640901 0)
(-0.158438 0.0417495 0)
(-0.158626 0.0191775 0)
(-0.15876 -0.00364655 0)
(-0.158862 -0.0267506 0)
(-0.158906 -0.0501529 0)
(-0.15882 -0.0738438 0)
(-0.158485 -0.0977656 0)
(-0.157732 -0.121791 0)
(-0.156341 -0.145695 0)
(-0.154047 -0.169133 0)
(-0.150546 -0.191603 0)
(-0.145509 -0.212419 0)
(-0.138611 -0.230685 0)
(-0.129559 -0.245267 0)
(-0.118154 -0.254797 0)
(-0.10435 -0.257685 0)
(-0.0883331 -0.252181 0)
(-0.0705979 -0.23647 0)
(-0.0519991 -0.208826 0)
(-0.0337536 -0.167796 0)
(-0.0173469 -0.112407 0)
(-0.00429312 -0.042344 0)
(-0.00425756 0.0428521 0)
(-0.0169966 0.112558 0)
(-0.0327347 0.166678 0)
(-0.0499686 0.206063 0)
(-0.0672698 0.232183 0)
(-0.0835066 0.246854 0)
(-0.0979102 0.252005 0)
(-0.110058 0.249507 0)
(-0.119812 0.24106 0)
(-0.127249 0.228133 0)
(-0.132585 0.211946 0)
(-0.136116 0.193472 0)
(-0.138178 0.173463 0)
(-0.139106 0.152473 0)
(-0.139219 0.130896 0)
(-0.138805 0.108987 0)
(-0.138112 0.0868959 0)
(-0.137346 0.0646898 0)
(-0.136669 0.0423726 0)
(-0.136202 0.0199058 0)
(-0.136016 -0.00277532 0)
(-0.136143 -0.0257445 0)
(-0.136565 -0.0490683 0)
(-0.137216 -0.0727881 0)
(-0.137977 -0.0969 0)
(-0.138675 -0.121332 0)
(-0.139078 -0.145916 0)
(-0.138893 -0.170356 0)
(-0.13777 -0.194193 0)
(-0.135312 -0.216761 0)
(-0.131096 -0.237149 0)
(-0.124705 -0.25416 0)
(-0.115784 -0.266292 0)
(-0.104118 -0.271732 0)
(-0.089724 -0.268403 0)
(-0.0729619 -0.254062 0)
(-0.0546261 -0.226474 0)
(-0.0359864 -0.183648 0)
(-0.0187221 -0.124113 0)
(-0.00465753 -0.0471985 0)
(-0.00467156 0.0475214 0)
(-0.0185391 0.123589 0)
(-0.0352096 0.181344 0)
(-0.0528503 0.222091 0)
(-0.0698356 0.247868 0)
(-0.0849863 0.261054 0)
(-0.0975989 0.264075 0)
(-0.107386 0.25919 0)
(-0.114377 0.248382 0)
(-0.118814 0.233301 0)
(-0.121064 0.215273 0)
(-0.12155 0.195317 0)
(-0.120705 0.174191 0)
(-0.118939 0.152433 0)
(-0.116623 0.1304 0)
(-0.114081 0.108307 0)
(-0.111583 0.0862605 0)
(-0.109354 0.0642811 0)
(-0.107565 0.0423283 0)
(-0.106343 0.0203189 0)
(-0.105772 -0.00185638 0)
(-0.105889 -0.0243179 0)
(-0.106687 -0.0471812 0)
(-0.108109 -0.0705408 0)
(-0.110047 -0.0944506 0)
(-0.112332 -0.118902 0)
(-0.114731 -0.143793 0)
(-0.116938 -0.168898 0)
(-0.118572 -0.193821 0)
(-0.11918 -0.217945 0)
(-0.118247 -0.240381 0)
(-0.115227 -0.259903 0)
(-0.109594 -0.274903 0)
(-0.100922 -0.283359 0)
(-0.0890064 -0.282851 0)
(-0.0739982 -0.270647 0)
(-0.0565568 -0.24389 0)