/*--------------------------------*- C++ -*----------------------------------*\
| =========                 |                                                 |
| \\      /  F ield         | OpenFOAM: The Open Source CFD Toolbox           |
|  \\    /   O peration     | Version:  4.1                                   |
|   \\  /    A nd           | Web:      www.OpenFOAM.org                      |
|    \\/     M anipulation  |                                                 |
\*---------------------------------------------------------------------------*/
FoamFile
{
    version     2.0;
    format      ascii;
    class       volVectorField;
    location    "0.1395";
    object      U;
}
// * * * * * * * * * * * * * * * * * * * * * * * * * * * * * * * * * * * * * //

dimensions      [0 1 -1 0 0 0 0];

internalField   nonuniform List<vector> 
6400
(
(8.02201e-06 -7.98698e-06 0)
(3.0281e-05 -1.16348e-05 0)
(4.85223e-05 -8.08502e-06 0)
(5.65745e-05 1.20238e-06 0)
(5.02086e-05 1.42156e-05 0)
(2.69359e-05 2.9381e-05 0)
(-1.44704e-05 4.55525e-05 0)
(-7.43194e-05 6.19171e-05 0)
(-0.000152271 7.79041e-05 0)
(-0.000247529 9.31169e-05 0)
(-0.000358987 0.000107284 0)
(-0.000485324 0.000120223 0)
(-0.000625084 0.000131818 0)
(-0.000776724 0.000141998 0)
(-0.000938657 0.000150729 0)
(-0.00110928 0.000158 0)
(-0.00128699 0.00016382 0)
(-0.00147022 0.000168211 0)
(-0.00165741 0.000171206 0)
(-0.00184706 0.000172846 0)
(-0.00203772 0.000173176 0)
(-0.00222798 0.000172247 0)
(-0.0024165 0.000170112 0)
(-0.00260198 0.000166827 0)
(-0.00278322 0.000162449 0)
(-0.00295903 0.000157037 0)
(-0.00312833 0.000150651 0)
(-0.00329009 0.000143351 0)
(-0.00344334 0.000135197 0)
(-0.00358718 0.000126251 0)
(-0.00372079 0.000116575 0)
(-0.00384339 0.000106231 0)
(-0.0039543 9.52815e-05 0)
(-0.00405288 8.37903e-05 0)
(-0.00413859 7.18213e-05 0)
(-0.00421093 5.94393e-05 0)
(-0.00426949 4.67099e-05 0)
(-0.00431393 3.36999e-05 0)
(-0.00434398 2.04768e-05 0)
(-0.00435944 7.10932e-06 0)
(-0.0043602 -6.33253e-06 0)
(-0.00434621 -1.97777e-05 0)
(-0.00431751 -3.3154e-05 0)
(-0.00427421 -4.63878e-05 0)
(-0.00421651 -5.94048e-05 0)
(-0.00414468 -7.21294e-05 0)
(-0.0040591 -8.4485e-05 0)
(-0.00396019 -9.63946e-05 0)
(-0.0038485 -0.000107781 0)
(-0.00372462 -0.000118565 0)
(-0.00358927 -0.00012867 0)
(-0.00344322 -0.000138018 0)
(-0.00328733 -0.000146532 0)
(-0.00312257 -0.000154136 0)
(-0.00294996 -0.000160757 0)
(-0.00277061 -0.000166322 0)
(-0.00258571 -0.000170763 0)
(-0.00239652 -0.000174013 0)
(-0.00220437 -0.00017601 0)
(-0.00201067 -0.000176697 0)
(-0.00181686 -0.000176022 0)
(-0.00162446 -0.000173941 0)
(-0.00143503 -0.000170416 0)
(-0.00125015 -0.000165419 0)
(-0.00107145 -0.000158934 0)
(-0.000900562 -0.000150959 0)
(-0.000739116 -0.000141508 0)
(-0.000588723 -0.000130617 0)
(-0.000450947 -0.000118349 0)
(-0.000327276 -0.000104806 0)
(-0.00021908 -9.01359e-05 0)
(-0.000127558 -7.4551e-05 0)
(-5.36647e-05 -5.83533e-05 0)
(1.98864e-06 -4.19657e-05 0)
(3.92716e-05 -2.59791e-05 0)
(5.87202e-05 -1.12162e-05 0)
(6.17901e-05 1.18571e-06 0)
(5.1175e-05 9.69332e-06 0)
(3.124e-05 1.23987e-05 0)
(8.15802e-06 8.09137e-06 0)
(1.17988e-05 -3.02206e-05 0)
(4.55528e-05 -4.50701e-05 0)
(6.52819e-05 -2.69638e-05 0)
(5.6707e-05 1.37807e-05 0)
(9.78683e-06 6.89554e-05 0)
(-8.16051e-05 0.000132441 0)
(-0.00022068 0.000199779 0)
(-0.000408433 0.00026777 0)
(-0.000644214 0.000334143 0)
(-0.000926169 0.000397299 0)
(-0.00125157 0.000456132 0)
(-0.00161709 0.000509892 0)
(-0.00201894 0.00055809 0)
(-0.00245309 0.000600428 0)
(-0.00291531 0.000636748 0)
(-0.00340128 0.000667 0)
(-0.00390668 0.000691209 0)
(-0.00442718 0.000709459 0)
(-0.00495854 0.000721879 0)
(-0.00549659 0.00072863 0)
(-0.00603729 0.000729899 0)
(-0.00657672 0.000725891 0)
(-0.00711111 0.000716826 0)
(-0.00763685 0.000702933 0)
(-0.00815049 0.000684451 0)
(-0.00864876 0.000661623 0)
(-0.00912854 0.000634698 0)
(-0.00958693 0.000603928 0)
(-0.0100212 0.000569567 0)
(-0.0104288 0.000531874 0)
(-0.0108073 0.000491107 0)
(-0.0111546 0.000447529 0)
(-0.0114688 0.000401404 0)
(-0.0117479 0.000352999 0)
(-0.0119906 0.000302585 0)
(-0.0121953 0.000250434 0)
(-0.0123609 0.000196823 0)
(-0.0124865 0.000142034 0)
(-0.0125713 8.63518e-05 0)
(-0.0126147 3.00662e-05 0)
(-0.0126164 -2.65283e-05 0)
(-0.0125763 -8.3132e-05 0)
(-0.0124946 -0.000139441 0)
(-0.0123715 -0.000195145 0)
(-0.0122076 -0.000249933 0)
(-0.0120038 -0.000303485 0)
(-0.011761 -0.000355481 0)
(-0.0114805 -0.000405597 0)
(-0.0111639 -0.000453507 0)
(-0.0108129 -0.000498885 0)
(-0.0104295 -0.000541405 0)
(-0.0100159 -0.000580741 0)
(-0.00957447 -0.000616574 0)
(-0.00910801 -0.000648586 0)
(-0.0086194 -0.00067647 0)
(-0.00811177 -0.000699925 0)
(-0.00758845 -0.000718663 0)
(-0.00705299 -0.000732411 0)
(-0.00650911 -0.000740913 0)
(-0.00596071 -0.000743931 0)
(-0.00541184 -0.000741253 0)
(-0.00486671 -0.000732697 0)
(-0.0043296 -0.000718113 0)
(-0.00380492 -0.000697389 0)
(-0.0032971 -0.000670466 0)
(-0.00281058 -0.000637338 0)
(-0.0023498 -0.000598075 0)
(-0.00191906 -0.000552835 0)
(-0.00152252 -0.000501891 0)
(-0.00116411 -0.000445664 0)
(-0.000847343 -0.00038477 0)
(-0.000575268 -0.000320086 0)
(-0.000350214 -0.000252838 0)
(-0.000173574 -0.000184728 0)
(-4.54793e-05 -0.000118108 0)
(3.56165e-05 -5.62114e-05 0)
(7.34717e-05 -3.45908e-06 0)
(7.4695e-05 3.41886e-05 0)
(4.96486e-05 4.88955e-05 0)
(1.26598e-05 3.1103e-05 0)
(8.45009e-06 -4.86383e-05 0)
(2.8235e-05 -6.4863e-05 0)
(2.10837e-05 -1.93241e-05 0)
(-3.14256e-05 6.8393e-05 0)
(-0.000142716 0.000183209 0)
(-0.00032123 0.000313803 0)
(-0.000571563 0.000451788 0)
(-0.000895262 0.000591022 0)
(-0.00129153 0.000727048 0)
(-0.00175781 0.000856666 0)
(-0.00229018 0.000977611 0)
(-0.00288377 0.00108831 0)
(-0.00353299 0.0011877 0)
(-0.00423178 0.00127513 0)
(-0.00497373 0.0013502 0)
(-0.00575228 0.00141277 0)
(-0.00656077 0.00146285 0)
(-0.00739252 0.00150056 0)
(-0.00824094 0.00152614 0)
(-0.00909954 0.00153989 0)
(-0.00996198 0.00154219 0)
(-0.0108221 0.00153344 0)
(-0.011674 0.00151409 0)
(-0.012512 0.00148459 0)
(-0.0133305 0.00144544 0)
(-0.0141245 0.00139715 0)
(-0.0148889 0.00134022 0)
(-0.0156192 0.00127518 0)
(-0.016311 0.00120258 0)
(-0.0169602 0.00112293 0)
(-0.0175631 0.0010368 0)
(-0.0181163 0.000944739 0)
(-0.0186165 0.000847299 0)
(-0.0190609 0.000745046 0)
(-0.0194472 0.000638553 0)
(-0.0197729 0.0005284 0)
(-0.0200364 0.000415172 0)
(-0.020236 0.000299465 0)
(-0.0203705 0.000181883 0)
(-0.0204392 6.30415e-05 0)
(-0.0204414 -5.64372e-05 0)
(-0.020377 -0.000175919 0)
(-0.0202463 -0.000294761 0)
(-0.0200498 -0.00041231 0)
(-0.0197883 -0.000527905 0)
(-0.0194633 -0.000640876 0)
(-0.0190763 -0.000750547 0)
(-0.0186294 -0.000856237 0)
(-0.018125 -0.000957261 0)
(-0.0175659 -0.00105294 0)
(-0.0169553 -0.00114258 0)
(-0.0162967 -0.0012255 0)
(-0.0155939 -0.00130105 0)
(-0.0148513 -0.00136855 0)
(-0.0140735 -0.00142737 0)
(-0.0132654 -0.00147689 0)
(-0.0124323 -0.0015165 0)
(-0.0115798 -0.00154566 0)
(-0.0107137 -0.00156382 0)
(-0.00984022 -0.00157052 0)
(-0.00896566 -0.00156533 0)
(-0.0080966 -0.00154788 0)
(-0.00723974 -0.00151788 0)
(-0.0064019 -0.00147513 0)
(-0.00558996 -0.00141954 0)
(-0.00481078 -0.00135113 0)
(-0.00407113 -0.00127008 0)
(-0.0033776 -0.00117677 0)
(-0.00273649 -0.0010718 0)
(-0.00215366 -0.000956094 0)
(-0.00163435 -0.000830955 0)
(-0.001183 -0.000698207 0)
(-0.000802947 -0.000560348 0)
(-0.000496094 -0.000420784 0)
(-0.000262497 -0.00028412 0)
(-9.98273e-05 -0.000156565 0)
(-2.7202e-06 -4.6438e-05 0)
(3.79474e-05 3.52162e-05 0)
(3.60742e-05 7.39202e-05 0)
(1.02479e-05 5.12073e-05 0)
(-5.6851e-07 -5.72016e-05 0)
(-1.14422e-05 -5.70035e-05 0)
(-6.47843e-05 3.29116e-05 0)
(-0.000180698 0.000184723 0)
(-0.000374147 0.00037678 0)
(-0.000654654 0.000592521 0)
(-0.00102745 0.00081942 0)
(-0.00149428 0.0010481 0)
(-0.0020541 0.00127159 0)
(-0.00270372 0.00148481 0)
(-0.00343829 0.00168404 0)
(-0.00425167 0.00186666 0)
(-0.00513682 0.00203086 0)
(-0.00608599 0.00217545 0)
(-0.00709099 0.00229973 0)
(-0.00814335 0.00240334 0)
(-0.00923441 0.00248623 0)
(-0.0103555 0.00254856 0)
(-0.011498 0.00259065 0)
(-0.0126533 0.00261297 0)
(-0.0138132 0.00261608 0)
(-0.0149694 0.00260064 0)
(-0.0161142 0.00256736 0)
(-0.0172399 0.002517 0)
(-0.0183393 0.00245036 0)
(-0.0194054 0.00236828 0)
(-0.0204318 0.0022716 0)
(-0.0214122 0.00216122 0)
(-0.0223408 0.00203802 0)
(-0.0232121 0.00190291 0)
(-0.0240212 0.00175682 0)
(-0.0247634 0.00160068 0)
(-0.0254344 0.00143543 0)
(-0.0260306 0.00126204 0)
(-0.0265486 0.00108147 0)
(-0.0269853 0.0008947 0)
(-0.0273384 0.000702739 0)
(-0.0276057 0.000506594 0)
(-0.0277857 0.000307293 0)
(-0.0278773 0.000105878 0)
(-0.0278797 -9.65909e-05 0)
(-0.0277928 -0.000299038 0)
(-0.0276169 -0.000500373 0)
(-0.0273526 -0.000699489 0)
(-0.0270014 -0.000895267 0)
(-0.0265649 -0.00108657 0)
(-0.0260453 -0.00127227 0)
(-0.0254454 -0.00145119 0)
(-0.0247685 -0.00162221 0)
(-0.0240183 -0.00178415 0)
(-0.0231989 -0.00193588 0)
(-0.0223153 -0.00207624 0)
(-0.0213725 -0.00220413 0)
(-0.0203762 -0.00231844 0)
(-0.0193327 -0.0024181 0)
(-0.0182484 -0.00250207 0)
(-0.0171305 -0.00256938 0)
(-0.0159863 -0.0026191 0)
(-0.0148236 -0.00265035 0)
(-0.0136505 -0.00266237 0)
(-0.0124753 -0.00265447 0)
(-0.0113068 -0.00262607 0)
(-0.0101538 -0.00257673 0)
(-0.00902513 -0.00250616 0)
(-0.00792984 -0.00241424 0)
(-0.00687684 -0.00230108 0)
(-0.00587491 -0.00216706 0)
(-0.00493257 -0.00201285 0)
(-0.00405786 -0.00183955 0)
(-0.00325828 -0.00164873 0)
(-0.00254046 -0.00144262 0)
(-0.00190997 -0.00122422 0)
(-0.00137099 -0.00099762 0)
(-0.000925896 -0.000768228 0)
(-0.00057481 -0.000543243 0)
(-0.000315044 -0.000332152 0)
(-0.000140417 -0.000147399 0)
(-4.05491e-05 -5.18586e-06 0)
(1.68468e-07 7.35916e-05 0)
(2.18019e-06 6.24265e-05 0)
(-1.33156e-05 -5.17543e-05 0)
(-6.55832e-05 -1.15326e-05 0)
(-0.000177944 0.000143157 0)
(-0.000370734 0.000377822 0)
(-0.000659153 0.000665046 0)
(-0.00105279 0.0009834 0)
(-0.00155682 0.00131632 0)
(-0.00217269 0.00165114 0)
(-0.00289894 0.00197826 0)
(-0.00373167 0.0022905 0)
(-0.00466514 0.00258253 0)
(-0.00569214 0.00285049 0)
(-0.00680434 0.00309168 0)
(-0.0079926 0.00330423 0)
(-0.00924719 0.00348701 0)
(-0.010558 0.00363939 0)
(-0.0119147 0.00376119 0)
(-0.0133068 0.00385255 0)
(-0.014724 0.0039139 0)
(-0.0161559 0.00394583 0)
(-0.0175925 0.00394915 0)
(-0.0190237 0.00392476 0)
(-0.0204402 0.00387369 0)
(-0.0218325 0.00379704 0)
(-0.0231919 0.00369598 0)
(-0.0245099 0.00357174 0)
(-0.0257784 0.00342558 0)
(-0.0269898 0.00325882 0)
(-0.028137 0.00307278 0)
(-0.0292133 0.00286882 0)
(-0.0302126 0.00264833 0)
(-0.0311291 0.0024127 0)
(-0.0319576 0.00216337 0)
(-0.0326936 0.00190177 0)
(-0.0333328 0.00162938 0)
(-0.0338717 0.00134767 0)
(-0.0343072 0.00105815 0)
(-0.0346368 0.000762351 0)
(-0.0348585 0.000461825 0)
(-0.034971 0.000158146 0)
(-0.0349735 -0.000147086 0)
(-0.0348657 -0.00045225 0)
(-0.0346479 -0.0007557 0)
(-0.0343212 -0.00105577 0)
(-0.0338871 -0.00135077 0)
(-0.0333478 -0.00163901 0)
(-0.032706 -0.00191876 0)
(-0.0319651 -0.0021883 0)
(-0.0311291 -0.0024459 0)
(-0.0302027 -0.00268983 0)
(-0.029191 -0.00291839 0)
(-0.0280998 -0.00312986 0)
(-0.0269356 -0.00332258 0)
(-0.0257053 -0.00349491 0)
(-0.0244165 -0.00364527 0)
(-0.0230772 -0.00377212 0)
(-0.0216959 -0.00387402 0)
(-0.0202818 -0.00394961 0)
(-0.0188443 -0.00399762 0)
(-0.0173932 -0.00401694 0)
(-0.0159388 -0.00400657 0)
(-0.0144915 -0.00396572 0)
(-0.013062 -0.00389377 0)
(-0.011661 -0.00379035 0)
(-0.0102994 -0.00365538 0)
(-0.00898795 -0.00348908 0)
(-0.00773705 -0.00329209 0)
(-0.00655688 -0.00306552 0)
(-0.00545704 -0.00281105 0)
(-0.00444637 -0.00253109 0)
(-0.00353273 -0.00222894 0)
(-0.00272271 -0.00190902 0)
(-0.00202127 -0.00157716 0)
(-0.00143136 -0.00124102 0)
(-0.000953444 -0.00091052 0)
(-0.000584939 -0.00059851 0)
(-0.000319583 -0.000321485 0)
(-0.00014675 -0.00010048 0)
(-5.04042e-05 3.79112e-05 0)
(-9.66936e-06 6.05761e-05 0)
(-2.83231e-05 -2.97705e-05 0)
(-0.000128516 7.78991e-05 0)
(-0.000308023 0.000320338 0)
(-0.000586597 0.000657988 0)
(-0.000978802 0.00105867 0)
(-0.00149353 0.00149668 0)
(-0.00213524 0.00195174 0)
(-0.00290473 0.00240803 0)
(-0.00379975 0.00285333 0)
(-0.00481561 0.0032783 0)
(-0.00594563 0.00367591 0)
(-0.00718156 0.00404096 0)
(-0.00851392 0.00436969 0)
(-0.00993232 0.00465952 0)
(-0.0114257 0.00490875 0)
(-0.0129825 0.00511644 0)
(-0.0145909 0.00528221 0)
(-0.0162389 0.00540616 0)
(-0.0179147 0.00548876 0)
(-0.0196062 0.00553078 0)
(-0.0213019 0.00553322 0)
(-0.0229903 0.0054973 0)
(-0.0246603 0.00542436 0)
(-0.0263011 0.00531591 0)
(-0.0279026 0.00517352 0)
(-0.0294547 0.00499887 0)
(-0.0309482 0.00479369 0)
(-0.0323742 0.0045598 0)
(-0.0337242 0.00429902 0)
(-0.0349906 0.00401325 0)
(-0.0361661 0.00370441 0)
(-0.0372441 0.00337444 0)
(-0.0382184 0.00302535 0)
(-0.0390838 0.00265914 0)
(-0.0398352 0.00227787 0)
(-0.0404686 0.0018836 0)
(-0.0409803 0.00147846 0)
(-0.0413675 0.00106457 0)
(-0.0416277 0.000644112 0)
(-0.0417596 0.000219289 0)
(-0.041762 -0.000207663 0)
(-0.0416348 -0.000634475 0)
(-0.0413784 -0.00105885 0)
(-0.0409939 -0.00147845 0)
(-0.0404831 -0.00189094 0)
(-0.0398487 -0.00229394 0)
(-0.0390938 -0.00268505 0)
(-0.0382225 -0.00306188 0)
(-0.0372393 -0.00342202 0)
(-0.0361498 -0.00376307 0)
(-0.0349599 -0.00408267 0)
(-0.0336766 -0.00437844 0)
(-0.0323072 -0.00464809 0)
(-0.0308598 -0.00488936 0)
(-0.0293433 -0.00510005 0)
(-0.0277671 -0.00527809 0)
(-0.026141 -0.00542147 0)
(-0.0244755 -0.00552835 0)
(-0.0227818 -0.00559702 0)
(-0.0210711 -0.00562596 0)
(-0.0193552 -0.00561388 0)
(-0.0176463 -0.00555971 0)
(-0.0159566 -0.00546268 0)
(-0.0142986 -0.00532236 0)
(-0.0126846 -0.00513869 0)
(-0.011127 -0.00491211 0)
(-0.00963767 -0.00464357 0)
(-0.00822831 -0.00433469 0)
(-0.00690981 -0.00398786 0)
(-0.00569227 -0.00360643 0)
(-0.00458465 -0.00319493 0)
(-0.00359454 -0.00275929 0)
(-0.00272774 -0.00230726 0)
(-0.00198795 -0.00184876 0)
(-0.00137626 -0.0013965 0)
(-0.000890648 -0.000966549 0)
(-0.000525392 -0.00057919 0)
(-0.00027039 -0.000259754 0)
(-0.00011004 -3.96008e-05 0)
(-2.38498e-05 4.30635e-05 0)
(-4.45684e-05 1.01498e-05 0)
(-0.000196299 0.000215089 0)
(-0.00044771 0.000570093 0)
(-0.000817563 0.00103198 0)
(-0.00131924 0.00156482 0)
(-0.00196037 0.00213933 0)
(-0.00274424 0.00273196 0)
(-0.00367056 0.00332398 0)
(-0.00473606 0.00390067 0)
(-0.00593503 0.00445061 0)
(-0.00725978 0.00496503 0)
(-0.008701 0.00543734 0)
(-0.0102481 0.0058627 0)
(-0.0118895 0.00623769 0)
(-0.013613 0.00656003 0)
(-0.0154056 0.00682837 0)
(-0.0172543 0.00704212 0)
(-0.0191458 0.0072013 0)
(-0.0210667 0.0073064 0)
(-0.0230037 0.00735834 0)
(-0.0249438 0.00735837 0)
(-0.0268742 0.00730798 0)
(-0.0287824 0.00720891 0)
(-0.0306564 0.00706305 0)
(-0.0324846 0.00687245 0)
(-0.0342558 0.00663928 0)
(-0.0359595 0.0063658 0)
(-0.0375857 0.00605438 0)
(-0.039125 0.00570741 0)
(-0.0405686 0.00532739 0)
(-0.0419083 0.00491685 0)
(-0.0431366 0.00447836 0)
(-0.0442467 0.00401457 0)
(-0.0452324 0.00352812 0)
(-0.0460883 0.00302175 0)
(-0.0468095 0.0024982 0)
(-0.0473921 0.00196027 0)
(-0.0478328 0.00141079 0)
(-0.0481289 0.000852659 0)
(-0.0482788 0.000288786 0)
(-0.0482812 -0.00027786 0)
(-0.0481361 -0.000844271 0)
(-0.0478438 -0.0014074 0)
(-0.0474057 -0.00196417 0)
(-0.0468239 -0.00251147 0)
(-0.0461012 -0.00304616 0)
(-0.0452413 -0.00356507 0)
(-0.0442488 -0.00406505 0)
(-0.0431289 -0.00454293 0)
(-0.0418877 -0.00499554 0)
(-0.0405322 -0.00541976 0)
(-0.0390699 -0.0058125 0)
(-0.0375093 -0.00617073 0)
(-0.0358595 -0.00649148 0)
(-0.0341305 -0.00677191 0)
(-0.0323328 -0.00700929 0)
(-0.0304775 -0.00720103 0)
(-0.0285765 -0.00734474 0)
(-0.0266421 -0.00743821 0)
(-0.0246871 -0.00747951 0)
(-0.0227247 -0.00746698 0)
(-0.0207684 -0.00739931 0)
(-0.018832 -0.00727555 0)
(-0.0169293 -0.00709521 0)
(-0.0150741 -0.00685834 0)
(-0.0132802 -0.00656557 0)
(-0.0115609 -0.00621826 0)
(-0.00992911 -0.00581858 0)
(-0.00839695 -0.00536973 0)
(-0.0069757 -0.00487609 0)
(-0.00567544 -0.00434346 0)
(-0.00450474 -0.00377939 0)
(-0.00347041 -0.00319354 0)
(-0.00257706 -0.00259812 0)
(-0.0018267 -0.00200848 0)
(-0.00121829 -0.00144373 0)
(-0.000747117 -0.000927522 0)
(-0.000404158 -0.000488854 0)
(-0.000174799 -0.000162901 0)
(-3.93373e-05 8.4149e-06 0)
(-6.13683e-05 6.86346e-05 0)
(-0.000266276 0.000402005 0)
(-0.000591978 0.000895613 0)
(-0.00105611 0.00150384 0)
(-0.00167055 0.00218795 0)
(-0.0024413 0.00291576 0)
(-0.00337012 0.00366093 0)
(-0.00445529 0.00440218 0)
(-0.00569227 0.00512249 0)
(-0.00707415 0.00580845 0)
(-0.00859209 0.00644964 0)
(-0.0102357 0.00703807 0)
(-0.0119932 0.00756781 0)
(-0.013852 0.00803458 0)
(-0.0157985 0.00843548 0)
(-0.0178188 0.00876873 0)
(-0.0198985 0.00903349 0)
(-0.0220232 0.00922966 0)
(-0.0241781 0.00935778 0)
(-0.0263488 0.0094189 0)
(-0.0285211 0.0094145 0)
(-0.0306808 0.00934639 0)
(-0.0328143 0.00921668 0)
(-0.0349083 0.00902773 0)
(-0.0369502 0.00878208 0)
(-0.0389276 0.00848243 0)
(-0.040829 0.00813162 0)
(-0.0426433 0.00773261 0)
(-0.0443602 0.00728845 0)
(-0.0459699 0.00680228 0)
(-0.0474635 0.0062773 0)
(-0.0488326 0.0057168 0)
(-0.0500698 0.0051241 0)
(-0.0511681 0.00450261 0)
(-0.0521216 0.00385578 0)
(-0.0529251 0.00318712 0)
(-0.053574 0.00250019 0)
(-0.0540648 0.00179861 0)
(-0.0543946 0.00108604 0)
(-0.0545615 0.000366221 0)
(-0.0545642 -0.000357081 0)
(-0.0544025 -0.00108003 0)
(-0.054077 -0.00179876 0)
(-0.0535891 -0.00250934 0)
(-0.0529411 -0.00320782 0)
(-0.0521362 -0.00389022 0)
(-0.0511784 -0.00455251 0)
(-0.0500729 -0.00519069 0)
(-0.0488253 -0.00580074 0)
(-0.0474425 -0.00637866 0)
(-0.045932 -0.00692049 0)
(-0.0443022 -0.00742233 0)
(-0.0425624 -0.00788034 0)
(-0.0407228 -0.00829082 0)
(-0.0387942 -0.00865016 0)
(-0.0367881 -0.00895494 0)
(-0.0347169 -0.00920192 0)
(-0.0325936 -0.00938812 0)
(-0.0304317 -0.00951081 0)
(-0.0282451 -0.00956758 0)
(-0.0260485 -0.00955641 0)
(-0.0238565 -0.0094757 0)
(-0.0216843 -0.00932435 0)
(-0.019547 -0.00910184 0)
(-0.0174597 -0.00880827 0)
(-0.0154373 -0.00844456 0)
(-0.0134946 -0.00801248 0)
(-0.0116456 -0.00751482 0)
(-0.00990361 -0.00695563 0)
(-0.00828109 -0.00634033 0)
(-0.0067892 -0.00567607 0)
(-0.00543764 -0.004972 0)
(-0.0042343 -0.00423966 0)
(-0.00318491 -0.00349347 0)
(-0.0022927 -0.00275124 0)
(-0.0015579 -0.00203482 0)
(-0.000977189 -0.0013708 0)
(-0.000542995 -0.000791194 0)
(-0.000241998 -0.00033412 0)
(-5.54408e-05 -4.40671e-05 0)
(-7.82802e-05 0.000145809 0)
(-0.000336706 0.000639361 0)
(-0.000737471 0.00129834 0)
(-0.00129709 0.00207563 0)
(-0.00202582 0.00293048 0)
(-0.00292779 0.00382845 0)
(-0.00400298 0.00474093 0)
(-0.00524801 0.0056444 0)
(-0.00665683 0.00651983 0)
(-0.00822116 0.007352 0)
(-0.00993089 0.0081289 0)
(-0.0117744 0.00884125 0)
(-0.0137388 0.00948203 0)
(-0.0158103 0.0100461 0)
(-0.0179743 0.01053 0)
(-0.0202156 0.0109315 0)
(-0.0225188 0.0112494 0)
(-0.0248682 0.0114835 0)
(-0.0272481 0.0116345 0)
(-0.0296428 0.0117035 0)
(-0.032037 0.0116922 0)
(-0.0344154 0.0116028 0)
(-0.0367633 0.0114378 0)
(-0.0390665 0.0111999 0)
(-0.041311 0.0108924 0)
(-0.0434838 0.0105184 0)
(-0.0455722 0.0100815 0)
(-0.0475642 0.00958515 0)
(-0.0494487 0.00903321 0)
(-0.0512152 0.00842948 0)
(-0.0528538 0.00777791 0)
(-0.0543555 0.00708254 0)
(-0.0557123 0.00634747 0)
(-0.0569167 0.0055769 0)
(-0.0579622 0.00477508 0)
(-0.0588431 0.00394635 0)
(-0.0595546 0.00309511 0)
(-0.0600927 0.00222583 0)
(-0.0604544 0.00134303 0)
(-0.0606375 0.000451318 0)
(-0.0606408 -0.000444637 0)
(-0.0604639 -0.00134011 0)
(-0.0601076 -0.00223033 0)
(-0.0595732 -0.00311045 0)
(-0.0588635 -0.00397559 0)
(-0.0579817 -0.00482085 0)
(-0.0569324 -0.00564128 0)
(-0.055721 -0.00643195 0)
(-0.0543537 -0.00718792 0)
(-0.0528378 -0.00790426 0)
(-0.0511816 -0.00857613 0)
(-0.0493942 -0.00919874 0)
(-0.0474857 -0.00976738 0)
(-0.0454669 -0.0102775 0)
(-0.0433496 -0.0107248 0)
(-0.0411463 -0.0111049 0)
(-0.0388704 -0.0114141 0)
(-0.0365358 -0.0116486 0)
(-0.0341572 -0.0118052 0)
(-0.0317496 -0.011881 0)
(-0.0293288 -0.0118735 0)
(-0.0269107 -0.0117808 0)
(-0.0245115 -0.0116018 0)
(-0.0221476 -0.0113357 0)
(-0.0198353 -0.0109829 0)
(-0.0175907 -0.0105445 0)
(-0.0154298 -0.0100227 0)
(-0.0133676 -0.00942103 0)
(-0.0114188 -0.00874424 0)
(-0.00959686 -0.00799891 0)
(-0.00791422 -0.0071935 0)
(-0.00638172 -0.0063387 0)
(-0.0050085 -0.0054479 0)
(-0.00380162 -0.00453753 0)
(-0.0027657 -0.00362767 0)
(-0.00190253 -0.0027426 0)
(-0.00121043 -0.00191137 0)
(-0.000683504 -0.00116845 0)
(-0.000309873 -0.00055413 0)
(-7.17101e-05 -0.000114569 0)
(-9.50289e-05 0.000241483 0)
(-0.000406498 0.000927041 0)
(-0.000882027 0.0017785 0)
(-0.00153713 0.00274797 0)
(-0.00238039 0.00379333 0)
(-0.003414 0.00487847 0)
(-0.00463594 0.00597291 0)
(-0.006041 0.00705132 0)
(-0.00762146 0.0080929 0)
(-0.00936752 0.00908082 0)
(-0.0112677 0.0100017 0)
(-0.013309 0.0108449 0)
(-0.0154774 0.0116025 0)
(-0.0177578 0.0122686 0)
(-0.0201346 0.0128391 0)
(-0.0225916 0.0133112 0)
(-0.0251121 0.0136837 0)
(-0.0276794 0.0139561 0)
(-0.0302768 0.0141292 0)
(-0.0328875 0.0142042 0)
(-0.0354951 0.0141832 0)
(-0.0380834 0.0140685 0)
(-0.0406367 0.0138633 0)
(-0.0431398 0.0135707 0)
(-0.0455778 0.0131944 0)
(-0.0479368 0.0127384 0)
(-0.0502031 0.0122067 0)
(-0.0523642 0.0116036 0)
(-0.0544079 0.0109336 0)
(-0.0563231 0.0102014 0)
(-0.0580992 0.00941161 0)
(-0.0597267 0.00856911 0)
(-0.0611969 0.00767885 0)
(-0.0625018 0.00674587 0)
(-0.0636345 0.00577529 0)
(-0.0645889 0.00477233 0)
(-0.0653597 0.0037423 0)
(-0.0659429 0.00269057 0)
(-0.066335 0.00162261 0)
(-0.0665339 0.000543956 0)
(-0.0665381 -0.000539767 0)
(-0.0663474 -0.00162287 0)
(-0.0659624 -0.0026996 0)
(-0.0653848 -0.00376413 0)
(-0.0646172 -0.00481061 0)
(-0.0636634 -0.00583312 0)
(-0.062528 -0.00682573 0)
(-0.0612169 -0.0077825 0)
(-0.0597368 -0.00869751 0)
(-0.0580954 -0.00956486 0)
(-0.0563016 -0.0103787 0)
(-0.054365 -0.0111334 0)
(-0.0522965 -0.0118232 0)
(-0.0501076 -0.0124427 0)
(-0.0478109 -0.0129868 0)
(-0.0454198 -0.0134503 0)
(-0.0429485 -0.0138286 0)
(-0.0404118 -0.0141175 0)
(-0.0378255 -0.014313 0)
(-0.0352056 -0.0144116 0)
(-0.0325688 -0.0144106 0)
(-0.0299322 -0.0143077 0)
(-0.0273132 -0.0141015 0)
(-0.0247291 -0.0137913 0)
(-0.0221974 -0.0133776 0)
(-0.0197354 -0.0128616 0)
(-0.0173602 -0.012246 0)
(-0.015088 -0.011535 0)
(-0.0129346 -0.0107343 0)
(-0.0109148 -0.00985135 0)
(-0.00904218 -0.00889596 0)
(-0.00732888 -0.00788032 0)
(-0.00578541 -0.00681948 0)
(-0.00442033 -0.00573177 0)
(-0.00323987 -0.00463927 0)
(-0.00224752 -0.00356836 0)
(-0.00144343 -0.00255018 0)
(-0.000823503 -0.00162109 0)
(-0.000377312 -0.000822967 0)
(-8.78643e-05 -0.000202958 0)
(-0.000111454 0.000355282 0)
(-0.000475008 0.00126441 0)
(-0.00102434 0.00233554 0)
(-0.0017741 0.00352053 0)
(-0.00273129 0.0047764 0)
(-0.00389606 0.00606583 0)
(-0.00526436 0.00735692 0)
(-0.00682902 0.00862284 0)
(-0.0085805 0.00984132 0)
(-0.0105073 0.0109941 0)
(-0.0125965 0.0120666 0)
(-0.0148337 0.0130471 0)
(-0.0172036 0.0139267 0)
(-0.0196899 0.0146988 0)
(-0.0222758 0.0153587 0)
(-0.024944 0.0159033 0)
(-0.0276768 0.016331 0)
(-0.0304565 0.0166415 0)
(-0.0332652 0.0168354 0)
(-0.0360853 0.0169142 0)
(-0.0388994 0.0168801 0)
(-0.0416903 0.0167361 0)
(-0.0444415 0.0164855 0)
(-0.0471368 0.0161322 0)
(-0.0497607 0.0156803 0)
(-0.0522981 0.0151345 0)
(-0.0547349 0.0144996 0)
(-0.0570576 0.0137806 0)
(-0.0592535 0.0129827 0)
(-0.0613106 0.0121114 0)
(-0.063218 0.0111722 0)
(-0.0649655 0.0101709 0)
(-0.0665438 0.00911316 0)
(-0.0679446 0.00800507 0)
(-0.0691604 0.00685263 0)
(-0.0701849 0.005662 0)
(-0.0710126 0.00443943 0)
(-0.0716389 0.00319129 0)
(-0.0720605 0.00192402 0)
(-0.0722749 0.000644166 0)
(-0.0722806 -0.000641646 0)
(-0.0720774 -0.0019267 0)
(-0.0716658 -0.0032042 0)
(-0.0710477 -0.00446729 0)
(-0.0702259 -0.00570905 0)
(-0.0692042 -0.00692252 0)
(-0.0679877 -0.0081007 0)
(-0.0665824 -0.00923661 0)
(-0.0649955 -0.0103233 0)
(-0.0632351 -0.0113538 0)
(-0.0613106 -0.0123212 0)
(-0.0592321 -0.0132188 0)
(-0.0570112 -0.0140401 0)
(-0.0546599 -0.0147787 0)
(-0.0521917 -0.0154283 0)
(-0.0496205 -0.0159832 0)
(-0.0469615 -0.0164378 0)
(-0.0442304 -0.0167872 0)
(-0.0414437 -0.0170268 0)
(-0.0386185 -0.0171526 0)
(-0.0357724 -0.0171614 0)
(-0.0329235 -0.0170505 0)
(-0.0300901 -0.0168183 0)
(-0.0272909 -0.016464 0)
(-0.0245442 -0.0159882 0)
(-0.0218686 -0.0153925 0)
(-0.019282 -0.0146798 0)
(-0.0168022 -0.013855 0)
(-0.0144461 -0.0129246 0)
(-0.0122295 -0.0118971 0)
(-0.0101675 -0.0107834 0)
(-0.00827371 -0.00959714 0)
(-0.00656001 -0.00835493 0)
(-0.00503661 -0.00707678 0)
(-0.00371147 -0.00578656 0)
(-0.00258995 -0.00451242 0)
(-0.00167411 -0.00328721 0)
(-0.000961684 -0.0021488 0)
(-0.00044367 -0.00114015 0)
(-0.000103741 -0.000308911 0)
(-0.000127474 0.00048674 0)
(-0.000541903 0.00165052 0)
(-0.00116369 0.00296841 0)
(-0.00200681 0.00439232 0)
(-0.00307674 0.00587885 0)
(-0.00437165 0.00738984 0)
(-0.00588539 0.00889233 0)
(-0.00760875 0.0103583 0)
(-0.00953028 0.0117643 0)
(-0.0116368 0.0130908 0)
(-0.0139136 0.0143223 0)
(-0.016345 0.015446 0)
(-0.0189142 0.0164523 0)
(-0.0216038 0.0173338 0)
(-0.0243957 0.0180855 0)
(-0.0272715 0.0187038 0)
(-0.0302126 0.0191871 0)
(-0.0332 0.0195348 0)
(-0.0362151 0.0197478 0)
(-0.0392392 0.0198277 0)
(-0.042254 0.019777 0)
(-0.0452417 0.0195991 0)
(-0.0481845 0.0192979 0)
(-0.0510658 0.0188777 0)
(-0.053869 0.0183434 0)
(-0.0565785 0.0177003 0)
(-0.0591794 0.0169538 0)
(-0.0616576 0.0161098 0)
(-0.0639997 0.0151744 0)
(-0.0661932 0.0141538 0)
(-0.0682266 0.0130544 0)
(-0.0700891 0.0118829 0)
(-0.0717712 0.0106461 0)
(-0.073264 0.00935072 0)
(-0.0745597 0.00800392 0)
(-0.0756517 0.0066128 0)
(-0.0765341 0.00518463 0)
(-0.0772022 0.00372679 0)
(-0.0776525 0.00224676 0)
(-0.0778823 0.000752132 0)
(-0.0778902 -0.000749394 0)
(-0.0776757 -0.00225003 0)
(-0.0772395 -0.00374189 0)
(-0.0765835 -0.00521702 0)
(-0.0757106 -0.00666739 0)
(-0.0746249 -0.00808494 0)
(-0.0733316 -0.00946157 0)
(-0.071837 -0.0107892 0)
(-0.0701486 -0.0120596 0)
(-0.0682749 -0.013265 0)
(-0.0662256 -0.0143973 0)
(-0.0640115 -0.0154487 0)
(-0.0616445 -0.0164116 0)
(-0.0591375 -0.0172786 0)
(-0.0565042 -0.0180426 0)
(-0.0537596 -0.0186969 0)
(-0.0509194 -0.0192351 0)
(-0.0480001 -0.0196515 0)
(-0.045019 -0.0199408 0)
(-0.0419942 -0.0200984 0)
(-0.038944 -0.0201206 0)
(-0.0358877 -0.0200044 0)
(-0.0328445 -0.0197478 0)
(-0.0298339 -0.0193501 0)
(-0.0268756 -0.0188118 0)
(-0.023989 -0.0181347 0)
(-0.0211935 -0.0173222 0)
(-0.0185078 -0.0163796 0)
(-0.0159501 -0.0153142 0)
(-0.0135377 -0.0141355 0)
(-0.011287 -0.0128556 0)
(-0.00921298 -0.0114891 0)
(-0.00732929 -0.0100543 0)
(-0.0056478 -0.00857257 0)
(-0.00417832 -0.00706938 0)
(-0.00292815 -0.0055744 0)
(-0.00190131 -0.00412187 0)
(-0.00109736 -0.00275079 0)
(-0.00050862 -0.00150489 0)
(-0.00011926 -0.000432015 0)
(-0.000143058 0.000635352 0)
(-0.000607058 0.0020843 0)
(-0.00129978 0.00367576 0)
(-0.00223469 0.00536198 0)
(-0.00341587 0.00709941 0)
(-0.00483954 0.00884934 0)
(-0.00649746 0.0105781 0)
(-0.00837834 0.0122567 0)
(-0.0104688 0.0138607 0)
(-0.0127537 0.0153698 0)
(-0.0152168 0.0167673 0)
(-0.0178407 0.0180399 0)
(-0.0206075 0.0191771 0)
(-0.0234981 0.0201712 0)
(-0.0264935 0.0210165 0)
(-0.029574 0.0217094 0)
(-0.0327199 0.022248 0)
(-0.0359114 0.0226318 0)
(-0.0391288 0.0228617 0)
(-0.0423525 0.0229397 0)
(-0.0455635 0.0228687 0)
(-0.0487428 0.0226523 0)
(-0.0518722 0.022295 0)
(-0.0549341 0.0218018 0)
(-0.0579114 0.0211781 0)
(-0.0607877 0.02043 0)
(-0.0635475 0.0195637 0)
(-0.066176 0.0185859 0)
(-0.0686593 0.0175035 0)
(-0.0709845 0.0163237 0)
(-0.0731395 0.0150537 0)
(-0.0751132 0.0137012 0)
(-0.0768954 0.0122739 0)
(-0.078477 0.0107797 0)
(-0.0798499 0.00922652 0)
(-0.0810072 0.00762266 0)
(-0.0819427 0.0059764 0)
(-0.0826516 0.00429616 0)
(-0.0831301 0.00259053 0)
(-0.0833755 0.000868181 0)
(-0.0833862 -0.00086207 0)
(-0.0831618 -0.00259131 0)
(-0.0827029 -0.00431053 0)
(-0.0820115 -0.00601062 0)
(-0.0810905 -0.00768241 0)
(-0.0799442 -0.00931668 0)
(-0.078578 -0.0109041 0)
(-0.0769983 -0.0124356 0)
(-0.075213 -0.0139017 0)
(-0.0732309 -0.0152934 0)
(-0.0710621 -0.0166015 0)
(-0.0687179 -0.0178172 0)
(-0.0662104 -0.0189317 0)
(-0.063553 -0.0199367 0)
(-0.0607604 -0.0208239 0)
(-0.0578478 -0.0215858 0)
(-0.0548317 -0.0222151 0)
(-0.0517293 -0.0227051 0)
(-0.0485587 -0.02305 0)
(-0.0453388 -0.0232444 0)
(-0.0420888 -0.023284 0)
(-0.0388288 -0.0231656 0)
(-0.0355791 -0.0228868 0)
(-0.0323601 -0.0224468 0)
(-0.0291926 -0.0218459 0)
(-0.0260972 -0.0210863 0)
(-0.0230943 -0.0201716 0)
(-0.020204 -0.0191077 0)
(-0.0174456 -0.0179025 0)
(-0.014838 -0.0165663 0)
(-0.012399 -0.0151122 0)
(-0.0101452 -0.0135561 0)
(-0.0080918 -0.0119174 0)
(-0.00625265 -0.0102188 0)
(-0.00463942 -0.00848723 0)
(-0.0032614 -0.00675356 0)
(-0.00212457 -0.00505319 0)
(-0.00123028 -0.00342603 0)
(-0.00057206 -0.0019163 0)
(-0.000134397 -0.000571823 0)
(-0.000158213 0.00080062 0)
(-0.000670488 0.00256462 0)
(-0.0014326 0.00445617 0)
(-0.00245765 0.006428 0)
(-0.00374843 0.00843657 0)
(-0.00529931 0.0104429 0)
(-0.00709997 0.0124128 0)
(-0.00913702 0.0143167 0)
(-0.011395 0.0161293 0)
(-0.0138571 0.0178296 0)
(-0.0165051 0.0194002 0)
(-0.0193202 0.0208272 0)
(-0.0222828 0.0220995 0)
(-0.0253727 0.0232088 0)
(-0.0285694 0.0241494 0)
(-0.0318522 0.0249174 0)
(-0.0352003 0.0255107 0)
(-0.0385928 0.0259291 0)
(-0.0420092 0.0261736 0)
(-0.0454289 0.0262464 0)
(-0.0488321 0.0261509 0)
(-0.0521991 0.0258911 0)
(-0.0555109 0.0254721 0)
(-0.0587491 0.0248995 0)
(-0.061896 0.0241796 0)
(-0.0649347 0.0233189 0)
(-0.0678489 0.0223247 0)
(-0.0706235 0.0212044 0)
(-0.073244 0.0199658 0)
(-0.075697 0.018617 0)
(-0.0779699 0.0171663 0)
(-0.0800513 0.0156223 0)
(-0.0819307 0.0139936 0)
(-0.0835986 0.0122893 0)
(-0.0850466 0.0105183 0)
(-0.0862674 0.00868994 0)
(-0.0872548 0.00681359 0)
(-0.0880038 0.0048988 0)
(-0.0885103 0.00295526 0)
(-0.0887716 0.00099278 0)
(-0.088786 -0.000978673 0)
(-0.0885529 -0.00294903 0)
(-0.0880732 -0.00490809 0)
(-0.0873486 -0.00684559 0)
(-0.0863823 -0.00875114 0)
(-0.0851785 -0.0106143 0)
(-0.0837429 -0.0124247 0)
(-0.0820821 -0.0141717 0)