/*--------------------------------*- C++ -*----------------------------------*\
| =========                 |                                                 |
| \\      /  F ield         | OpenFOAM: The Open Source CFD Toolbox           |
|  \\    /   O peration     | Version:  4.1                                   |
|   \\  /    A nd           | Web:      www.OpenFOAM.org                      |
|    \\/     M anipulation  |                                                 |
\*---------------------------------------------------------------------------*/
FoamFile
{
    version     2.0;
    format      ascii;
    class       volVectorField;
    location    "0.1575";
    object      U;
}
// * * * * * * * * * * * * * * * * * * * * * * * * * * * * * * * * * * * * * //

dimensions      [0 1 -1 0 0 0 0];

internalField   nonuniform List<vector> 
6400
(
(8.02953e-06 -7.99444e-06 0)
(3.03105e-05 -1.16469e-05 0)
(4.85716e-05 -8.09543e-06 0)
(5.66361e-05 1.19888e-06 0)
(5.02706e-05 1.42226e-05 0)
(2.69842e-05 2.94006e-05 0)
(-1.44514e-05 4.55859e-05 0)
(-7.43456e-05 6.19646e-05 0)
(-0.000152358 7.79654e-05 0)
(-0.000247693 9.31915e-05 0)
(-0.000359241 0.000107371 0)
(-0.000485682 0.000120322 0)
(-0.000625558 0.000131927 0)
(-0.000777324 0.000142116 0)
(-0.000939393 0.000150854 0)
(-0.00111016 0.000158132 0)
(-0.00128802 0.000163957 0)
(-0.0014714 0.000168352 0)
(-0.00165875 0.00017135 0)
(-0.00184856 0.000172991 0)
(-0.00203938 0.000173321 0)
(-0.00222981 0.000172391 0)
(-0.00241848 0.000170254 0)
(-0.00260413 0.000166966 0)
(-0.00278551 0.000162585 0)
(-0.00296147 0.000157168 0)
(-0.00313092 0.000150776 0)
(-0.00329281 0.000143469 0)
(-0.00344619 0.000135308 0)
(-0.00359015 0.000126354 0)
(-0.00372386 0.000116669 0)
(-0.00384657 0.000106315 0)
(-0.00395756 9.53561e-05 0)
(-0.00405622 8.38545e-05 0)
(-0.004142 7.18747e-05 0)
(-0.00421439 5.94815e-05 0)
(-0.00427299 4.67408e-05 0)
(-0.00431746 3.37192e-05 0)
(-0.00434753 2.04844e-05 0)
(-0.00436299 7.10525e-06 0)
(-0.00436374 -6.3483e-06 0)
(-0.00434972 -1.98051e-05 0)
(-0.00432098 -3.31927e-05 0)
(-0.00427764 -4.64378e-05 0)
(-0.00421988 -5.94656e-05 0)
(-0.00414798 -7.22006e-05 0)
(-0.00406231 -8.45663e-05 0)
(-0.00396331 -9.64854e-05 0)
(-0.00385151 -0.00010788 0)
(-0.00372752 -0.000118673 0)
(-0.00359204 -0.000128785 0)
(-0.00344586 -0.00013814 0)
(-0.00328984 -0.00014666 0)
(-0.00312493 -0.000154269 0)
(-0.00295217 -0.000160894 0)
(-0.00277267 -0.000166462 0)
(-0.00258761 -0.000170905 0)
(-0.00239827 -0.000174156 0)
(-0.00220596 -0.000176153 0)
(-0.0020121 -0.000176839 0)
(-0.00181814 -0.000176162 0)
(-0.00162558 -0.000174077 0)
(-0.001436 -0.000170548 0)
(-0.00125098 -0.000165545 0)
(-0.00107215 -0.000159054 0)
(-0.00090113 -0.000151071 0)
(-0.000739565 -0.00014161 0)
(-0.000589063 -0.000130709 0)
(-0.00045119 -0.000118432 0)
(-0.000327433 -0.000104877 0)
(-0.000219164 -9.01947e-05 0)
(-0.000127583 -7.45975e-05 0)
(-5.36453e-05 -5.83872e-05 0)
(2.03888e-06 -4.19873e-05 0)
(3.93389e-05 -2.59891e-05 0)
(5.87917e-05 -1.1216e-05 0)
(6.18544e-05 1.19379e-06 0)
(5.12235e-05 9.70587e-06 0)
(3.12677e-05 1.24109e-05 0)
(8.16487e-06 8.09823e-06 0)
(1.18108e-05 -3.02499e-05 0)
(4.56015e-05 -4.51189e-05 0)
(6.53581e-05 -2.70026e-05 0)
(5.67887e-05 1.37729e-05 0)
(9.84224e-06 6.89923e-05 0)
(-8.16135e-05 0.000132531 0)
(-0.000220794 0.000199926 0)
(-0.000408694 0.000267976 0)
(-0.000644664 0.000334406 0)
(-0.000926849 0.000397617 0)
(-0.00125252 0.000456502 0)
(-0.00161834 0.00051031 0)
(-0.00202053 0.00055855 0)
(-0.00245505 0.000600926 0)
(-0.00291766 0.000637279 0)
(-0.00340404 0.000667557 0)
(-0.00390987 0.000691788 0)
(-0.00443082 0.000710054 0)
(-0.00496263 0.000722485 0)
(-0.00550114 0.000729242 0)
(-0.0060423 0.000730512 0)
(-0.00658219 0.000726501 0)
(-0.00711704 0.000717427 0)
(-0.00764323 0.000703522 0)
(-0.0081573 0.000685022 0)
(-0.00865599 0.000662174 0)
(-0.00913618 0.000635224 0)
(-0.00959496 0.000604426 0)
(-0.0100296 0.000570034 0)
(-0.0104375 0.000532306 0)
(-0.0108163 0.000491503 0)
(-0.0111639 0.000447885 0)
(-0.0114783 0.000401718 0)
(-0.0117577 0.00035327 0)
(-0.0120006 0.00030281 0)
(-0.0122054 0.000250612 0)
(-0.0123712 0.000196954 0)
(-0.0124968 0.000142116 0)
(-0.0125817 8.63844e-05 0)
(-0.0126251 3.00494e-05 0)
(-0.0126268 -2.65943e-05 0)
(-0.0125866 -8.32468e-05 0)
(-0.0125048 -0.000139604 0)
(-0.0123815 -0.000195355 0)
(-0.0122175 -0.000250188 0)
(-0.0120134 -0.000303784 0)
(-0.0117704 -0.000355823 0)
(-0.0114897 -0.000405979 0)
(-0.0111728 -0.000453926 0)
(-0.0108214 -0.000499339 0)
(-0.0104377 -0.00054189 0)
(-0.0100236 -0.000581255 0)
(-0.00958187 -0.000617112 0)
(-0.009115 -0.000649146 0)
(-0.00862597 -0.000677047 0)
(-0.0081179 -0.000700515 0)
(-0.00759414 -0.000719262 0)
(-0.00705823 -0.000733014 0)
(-0.00651389 -0.000741515 0)
(-0.00596504 -0.000744529 0)
(-0.00541573 -0.000741842 0)
(-0.00487016 -0.000733272 0)
(-0.00433263 -0.000718668 0)
(-0.00380754 -0.000697922 0)
(-0.00329932 -0.00067097 0)
(-0.00281244 -0.00063781 0)
(-0.00235131 -0.00059851 0)
(-0.00192025 -0.00055323 0)
(-0.00152343 -0.000502241 0)
(-0.00116476 -0.000445967 0)
(-0.000847779 -0.000385023 0)
(-0.000575522 -0.000320288 0)
(-0.000350324 -0.000252987 0)
(-0.000173579 -0.000184826 0)
(-4.54145e-05 -0.000118157 0)
(3.57164e-05 -5.62175e-05 0)
(7.35763e-05 -3.43104e-06 0)
(7.47802e-05 3.42374e-05 0)
(4.96992e-05 4.89461e-05 0)
(1.26721e-05 3.11307e-05 0)
(8.4605e-06 -4.86877e-05 0)
(2.82734e-05 -6.49394e-05 0)
(2.11307e-05 -1.9372e-05 0)
(-3.14064e-05 6.8413e-05 0)
(-0.000142773 0.000183323 0)
(-0.000321422 0.000314026 0)
(-0.000571951 0.000452129 0)
(-0.00089591 0.000591484 0)
(-0.00129251 0.000727628 0)
(-0.00175916 0.000857361 0)
(-0.00229198 0.000978411 0)
(-0.00288607 0.00108921 0)
(-0.00353584 0.00118869 0)
(-0.00423522 0.00127619 0)
(-0.00497781 0.00135133 0)
(-0.00575702 0.00141396 0)
(-0.0065662 0.00146408 0)
(-0.00739866 0.00150182 0)
(-0.00824781 0.00152742 0)
(-0.00910715 0.00154119 0)
(-0.00997033 0.0015435 0)
(-0.0108312 0.00153474 0)
(-0.0116838 0.00151536 0)
(-0.0125225 0.00148584 0)
(-0.0133417 0.00144666 0)
(-0.0141364 0.00139832 0)
(-0.0149015 0.00134134 0)
(-0.0156324 0.00127624 0)
(-0.0163248 0.00120357 0)
(-0.0169745 0.00112385 0)
(-0.0175779 0.00103764 0)
(-0.0181315 0.000945494 0)
(-0.0186321 0.000847964 0)
(-0.0190769 0.000745619 0)
(-0.0194635 0.00063903 0)
(-0.0197895 0.000528777 0)
(-0.0200531 0.000415447 0)
(-0.0202528 0.000299637 0)
(-0.0203874 0.000181952 0)
(-0.0204561 6.30052e-05 0)
(-0.0204583 -5.65778e-05 0)
(-0.0203938 -0.000176163 0)
(-0.0202629 -0.000295107 0)
(-0.0200662 -0.000412756 0)
(-0.0198045 -0.000528447 0)
(-0.0194791 -0.000641511 0)
(-0.0190917 -0.000751272 0)
(-0.0186444 -0.000857046 0)
(-0.0181395 -0.00095815 0)
(-0.0175799 -0.0010539 0)
(-0.0169687 -0.0011436 0)
(-0.0163094 -0.00122659 0)
(-0.0156061 -0.00130219 0)
(-0.0148628 -0.00136974 0)
(-0.0140843 -0.00142859 0)
(-0.0132755 -0.00147814 0)
(-0.0124417 -0.00151777 0)
(-0.0115885 -0.00154693 0)
(-0.0107217 -0.0015651 0)
(-0.00984748 -0.00157179 0)
(-0.00897221 -0.00156658 0)
(-0.00810244 -0.0015491 0)
(-0.00724489 -0.00151906 0)
(-0.0064064 -0.00147626 0)
(-0.00559382 -0.00142061 0)
(-0.00481405 -0.00135213 0)
(-0.00407384 -0.00127101 0)
(-0.0033798 -0.00117761 0)
(-0.00273822 -0.00107256 0)
(-0.00215497 -0.000956752 0)
(-0.0016353 -0.000831511 0)
(-0.00118364 -0.000698655 0)
(-0.000803331 -0.000560689 0)
(-0.000496284 -0.000421019 0)
(-0.000262549 -0.000284256 0)
(-9.97935e-05 -0.000156611 0)
(-2.64731e-06 -4.64111e-05 0)
(3.80213e-05 3.52902e-05 0)
(3.6123e-05 7.40055e-05 0)
(1.02605e-05 5.12558e-05 0)
(-5.65014e-07 -5.72632e-05 0)
(-1.14352e-05 -5.70855e-05 0)
(-6.48065e-05 3.28911e-05 0)
(-0.000180801 0.000184822 0)
(-0.000374395 0.000377037 0)
(-0.000655121 0.000592961 0)
(-0.00102822 0.000820054 0)
(-0.00149542 0.00104893 0)
(-0.00205571 0.00127262 0)
(-0.00270588 0.00148602 0)
(-0.00344106 0.00168543 0)
(-0.00425513 0.00186821 0)
(-0.00514103 0.00203256 0)
(-0.00609101 0.00217728 0)
(-0.00709688 0.00230166 0)
(-0.00815013 0.00240537 0)
(-0.00924213 0.00248833 0)
(-0.0103642 0.00255071 0)
(-0.0115076 0.00259284 0)
(-0.012664 0.00261518 0)
(-0.0138248 0.0026183 0)
(-0.0149821 0.00260285 0)
(-0.0161278 0.00256954 0)
(-0.0172545 0.00251913 0)
(-0.0183548 0.00245243 0)
(-0.0194219 0.00237027 0)
(-0.0204492 0.0022735 0)
(-0.0214304 0.00216302 0)
(-0.0223597 0.00203971 0)
(-0.0232318 0.00190447 0)
(-0.0240415 0.00175825 0)
(-0.0247843 0.00160196 0)
(-0.0254559 0.00143656 0)
(-0.0260526 0.00126301 0)
(-0.0265709 0.00108227 0)
(-0.027008 0.000895341 0)
(-0.0273613 0.000703206 0)
(-0.0276288 0.000506886 0)
(-0.0278089 0.000307407 0)
(-0.0279005 0.000105814 0)
(-0.0279028 -9.6832e-05 0)
(-0.0278158 -0.000299455 0)
(-0.0276396 -0.000500964 0)
(-0.0273751 -0.000700249 0)
(-0.0270235 -0.000896191 0)
(-0.0265865 -0.00108766 0)
(-0.0260664 -0.0012735 0)
(-0.025466 -0.00145257 0)
(-0.0247884 -0.00162372 0)
(-0.0240374 -0.00178579 0)
(-0.0232174 -0.00193763 0)
(-0.0223329 -0.0020781 0)
(-0.0213893 -0.00220607 0)
(-0.0203921 -0.00232046 0)
(-0.0193477 -0.00242018 0)
(-0.0182625 -0.0025042 0)
(-0.0171436 -0.00257154 0)
(-0.0159984 -0.00262127 0)
(-0.0148347 -0.00265253 0)
(-0.0136606 -0.00266453 0)
(-0.0124845 -0.0026566 0)
(-0.0113151 -0.00262815 0)
(-0.0101611 -0.00257875 0)
(-0.00903157 -0.00250809 0)
(-0.00793542 -0.00241608 0)
(-0.00688161 -0.00230281 0)
(-0.00587893 -0.00216866 0)
(-0.00493587 -0.00201431 0)
(-0.00406052 -0.00184086 0)
(-0.00326036 -0.00164988 0)
(-0.00254203 -0.0014436 0)
(-0.0019111 -0.00122503 0)
(-0.00137176 -0.000998246 0)
(-0.00092637 -0.00076868 0)
(-0.000575065 -0.000543528 0)
(-0.000315146 -0.000332287 0)
(-0.000140429 -0.000147411 0)
(-4.05221e-05 -5.11264e-06 0)
(1.96668e-07 7.36965e-05 0)
(2.18842e-06 6.24909e-05 0)
(-1.33227e-05 -5.18165e-05 0)
(-6.56219e-05 -1.15883e-05 0)
(-0.000178063 0.000143213 0)
(-0.000370999 0.000378066 0)
(-0.000659645 0.000665528 0)
(-0.0010536 0.000984152 0)
(-0.00155804 0.00131736 0)
(-0.00217442 0.00165247 0)
(-0.00290127 0.00197988 0)
(-0.00373471 0.00229238 0)
(-0.00466897 0.00258467 0)
(-0.00569684 0.00285288 0)
(-0.00680998 0.00309427 0)
(-0.00799926 0.00330702 0)
(-0.00925493 0.00348995 0)
(-0.0105669 0.00364247 0)
(-0.0119247 0.00376438 0)
(-0.0133181 0.00385583 0)
(-0.0147365 0.00391722 0)
(-0.0161696 0.00394919 0)
(-0.0176074 0.00395251 0)
(-0.0190399 0.00392809 0)
(-0.0204575 0.00387697 0)
(-0.0218511 0.00380025 0)
(-0.0232116 0.0036991 0)
(-0.0245307 0.00357475 0)
(-0.0258003 0.00342846 0)
(-0.0270128 0.00326154 0)
(-0.0281609 0.00307532 0)
(-0.0292382 0.00287118 0)
(-0.0302382 0.00265048 0)
(-0.0311555 0.00241464 0)
(-0.0319847 0.00216508 0)
(-0.0327212 0.00190324 0)
(-0.0333609 0.0016306 0)
(-0.0339002 0.00134863 0)
(-0.034336 0.00105885 0)
(-0.0346658 0.000762788 0)
(-0.0348877 0.000461994 0)
(-0.0350002 0.000158047 0)
(-0.0350026 -0.000147454 0)
(-0.0348946 -0.000452883 0)
(-0.0346766 -0.000756595 0)
(-0.0343495 -0.00105692 0)
(-0.0339149 -0.00135217 0)
(-0.033375 -0.00164065 0)
(-0.0327326 -0.00192063 0)
(-0.031991 -0.00219038 0)
(-0.0311542 -0.00244819 0)
(-0.0302269 -0.00269231 0)
(-0.0292143 -0.00292104 0)
(-0.0281221 -0.00313266 0)
(-0.0269568 -0.00332552 0)
(-0.0257255 -0.00349797 0)
(-0.0244355 -0.00364842 0)
(-0.023095 -0.00377534 0)
(-0.0217126 -0.00387729 0)
(-0.0202973 -0.0039529 0)
(-0.0188586 -0.00400092 0)
(-0.0174063 -0.00402021 0)
(-0.0159507 -0.0040098 0)
(-0.0145022 -0.00396888 0)
(-0.0130715 -0.00389683 0)
(-0.0116695 -0.0037933 0)
(-0.0103068 -0.00365818 0)
(-0.00899429 -0.00349172 0)
(-0.00774244 -0.00329454 0)
(-0.00656138 -0.00306776 0)
(-0.00546071 -0.00281307 0)
(-0.0044493 -0.00253287 0)
(-0.00353501 -0.00223047 0)
(-0.00272442 -0.00191029 0)
(-0.00202249 -0.00157818 0)
(-0.00143219 -0.00124177 0)
(-0.000953962 -0.000911033 0)
(-0.000585228 -0.0005988 0)
(-0.000319717 -0.000321587 0)
(-0.000146795 -0.000100446 0)
(-5.04096e-05 3.80118e-05 0)
(-9.6688e-06 6.06479e-05 0)
(-2.83429e-05 -2.98188e-05 0)
(-0.000128609 7.7908e-05 0)
(-0.000308255 0.000320529 0)
(-0.000587049 0.000658451 0)
(-0.000979571 0.00105947 0)
(-0.00149472 0.00149785 0)
(-0.00213697 0.0019533 0)
(-0.0029071 0.00240999 0)
(-0.00380287 0.00285567 0)
(-0.00481959 0.00328102 0)
(-0.00595056 0.00367898 0)
(-0.00718754 0.00404435 0)
(-0.00852104 0.00437338 0)
(-0.00994065 0.00466346 0)
(-0.0114353 0.00491292 0)
(-0.0129934 0.00512079 0)
(-0.0146032 0.00528671 0)
(-0.0162527 0.00541077 0)
(-0.0179298 0.00549344 0)
(-0.0196228 0.00553549 0)
(-0.02132 0.00553794 0)
(-0.0230098 0.00550197 0)
(-0.0246813 0.00542897 0)
(-0.0263235 0.00532041 0)
(-0.0279264 0.00517789 0)
(-0.0294798 0.00500308 0)
(-0.0309746 0.00479772 0)
(-0.0324017 0.0045636 0)
(-0.0337529 0.00430258 0)
(-0.0350203 0.00401655 0)
(-0.0361968 0.00370742 0)
(-0.0372756 0.00337715 0)
(-0.0382508 0.00302774 0)
(-0.0391168 0.0026612 0)
(-0.0398688 0.00227958 0)
(-0.0405027 0.00188495 0)
(-0.0410148 0.00147944 0)
(-0.0414021 0.00106518 0)
(-0.0416626 0.000644345 0)
(-0.0417944 0.000219145 0)
(-0.0417967 -0.000208183 0)
(-0.0416693 -0.000635367 0)
(-0.0414125 -0.00106011 0)
(-0.0410276 -0.00148007 0)
(-0.0405163 -0.00189291 0)
(-0.0398812 -0.00229624 0)
(-0.0391256 -0.00268767 0)
(-0.0382534 -0.0030648 0)
(-0.0372693 -0.00342522 0)
(-0.0361788 -0.00376654 0)
(-0.0349878 -0.00408638 0)
(-0.0337033 -0.00438237 0)
(-0.0323327 -0.00465221 0)
(-0.030884 -0.00489364 0)
(-0.0293662 -0.00510446 0)
(-0.0277886 -0.0052826 0)
(-0.0261611 -0.00542605 0)
(-0.0244943 -0.00553297 0)
(-0.0227991 -0.00560164 0)
(-0.0210869 -0.00563056 0)
(-0.0193697 -0.00561842 0)
(-0.0176594 -0.00556415 0)
(-0.0159683 -0.00546699 0)
(-0.014309 -0.0053265 0)
(-0.0126938 -0.00514265 0)
(-0.0111349 -0.00491584 0)
(-0.00964447 -0.00464704 0)
(-0.00823404 -0.00433788 0)
(-0.00691456 -0.00399075 0)
(-0.00569612 -0.003609 0)
(-0.0045877 -0.00319715 0)
(-0.00359688 -0.00276116 0)
(-0.00272948 -0.00230877 0)
(-0.00198918 -0.00184993 0)
(-0.00137708 -0.00139732 0)
(-0.000891157 -0.000967066 0)
(-0.000525674 -0.000579442 0)
(-0.000270523 -0.000259803 0)
(-0.000110088 -3.95342e-05 0)
(-2.38591e-05 4.31315e-05 0)
(-4.46023e-05 1.01312e-05 0)
(-0.000196452 0.000215204 0)
(-0.000448064 0.000570483 0)
(-0.000818218 0.00103274 0)
(-0.00132031 0.00156603 0)
(-0.00196196 0.00214103 0)
(-0.00274649 0.00273416 0)
(-0.00367359 0.0033267 0)
(-0.00473998 0.00390389 0)
(-0.00593997 0.00445431 0)
(-0.00726584 0.00496919 0)
(-0.00870828 0.00544191 0)
(-0.0102567 0.00586765 0)
(-0.0118995 0.00624297 0)
(-0.0136244 0.0065656 0)
(-0.0154186 0.00683418 0)
(-0.0172689 0.00704812 0)
(-0.019162 0.00720743 0)
(-0.0210845 0.00731263 0)
(-0.0230232 0.00736462 0)
(-0.024965 0.00736464 0)
(-0.026897 0.0073142 0)
(-0.0288069 0.00721504 0)
(-0.0306825 0.00706904 0)
(-0.0325122 0.00687826 0)
(-0.0342849 0.00664487 0)
(-0.0359901 0.00637115 0)
(-0.0376177 0.00605943 0)
(-0.0391582 0.00571214 0)
(-0.040603 0.00533177 0)
(-0.0419438 0.00492085 0)
(-0.0431731 0.00448196 0)
(-0.0442841 0.00401773 0)
(-0.0452706 0.00353085 0)
(-0.0461271 0.00302401 0)
(-0.0468488 0.00249998 0)
(-0.0474318 0.00196156 0)
(-0.0478728 0.0014116 0)
(-0.0481691 0.000852962 0)
(-0.0483189 0.000288588 0)
(-0.0483213 -0.000278556 0)
(-0.0481759 -0.000845461 0)
(-0.0478832 -0.00140908 0)
(-0.0474446 -0.00196632 0)
(-0.0468622 -0.00251408 0)
(-0.0461387 -0.00304921 0)
(-0.045278 -0.00356856 0)
(-0.0442845 -0.00406894 0)
(-0.0431636 -0.00454719 0)
(-0.0419212 -0.00500015 0)
(-0.0405644 -0.00542469 0)
(-0.0391008 -0.00581772 0)
(-0.0375388 -0.0061762 0)
(-0.0358876 -0.00649717 0)
(-0.0341571 -0.00677777 0)
(-0.0323578 -0.00701529 0)
(-0.0305009 -0.00720712 0)
(-0.0285983 -0.00735088 0)
(-0.0266623 -0.00744436 0)
(-0.0247057 -0.00748563 0)
(-0.0227417 -0.00747302 0)
(-0.0207838 -0.00740522 0)
(-0.0188459 -0.00728129 0)
(-0.0169417 -0.00710075 0)
(-0.0150851 -0.00686363 0)
(-0.0132898 -0.00657057 0)
(-0.0115691 -0.00622292 0)
(-0.00993609 -0.00582288 0)
(-0.00840279 -0.00537364 0)
(-0.00698049 -0.00487958 0)
(-0.00567929 -0.0043465 0)
(-0.00450776 -0.00378198 0)
(-0.00347269 -0.00319566 0)
(-0.00257872 -0.00259979 0)
(-0.00182785 -0.00200971 0)
(-0.00121904 -0.00144455 0)
(-0.000747561 -0.00092799 0)
(-0.00040439 -0.000489038 0)
(-0.000174894 -0.000162902 0)
(-3.93577e-05 8.46652e-06 0)
(-6.14168e-05 6.86623e-05 0)
(-0.00026649 0.000402271 0)
(-0.000592459 0.000896268 0)
(-0.00105697 0.00150499 0)
(-0.00167192 0.00218967 0)
(-0.00244331 0.0029181 0)
(-0.00337291 0.00366391 0)
(-0.00445899 0.0044058 0)
(-0.00569701 0.00512673 0)
(-0.00708005 0.0058133 0)
(-0.00859928 0.00645504 0)
(-0.0102443 0.00704399 0)
(-0.0120033 0.0075742 0)
(-0.0138636 0.00804138 0)
(-0.0158118 0.00844264 0)
(-0.0178338 0.00877619 0)
(-0.0199153 0.00904118 0)
(-0.0220418 0.00923752 0)
(-0.0241985 0.00936576 0)
(-0.0263711 0.00942693 0)
(-0.0285452 0.00942251 0)
(-0.0307068 0.00935434 0)
(-0.0328421 0.00922451 0)
(-0.0349379 0.00903538 0)
(-0.0369815 0.0087895 0)
(-0.0389606 0.00848957 0)
(-0.0408636 0.00813843 0)
(-0.0426794 0.00773905 0)
(-0.0443977 0.00729448 0)
(-0.0460087 0.00680786 0)
(-0.0475035 0.0062824 0)
(-0.0488737 0.00572137 0)
(-0.0501118 0.00512813 0)
(-0.051211 0.00450608 0)
(-0.0521653 0.00385866 0)
(-0.0529693 0.00318939 0)
(-0.0536187 0.00250184 0)
(-0.0541098 0.00179962 0)
(-0.0544398 0.00108642 0)
(-0.0546066 0.00036596 0)
(-0.0546092 -0.000357978 0)
(-0.0544472 -0.00108156 0)
(-0.0541213 -0.00180091 0)
(-0.0536328 -0.0025121 0)
(-0.0529841 -0.00321117 0)
(-0.0521784 -0.00389412 0)
(-0.0512197 -0.00455696 0)
(-0.0501131 -0.00519565 0)
(-0.0488644 -0.00580618 0)
(-0.0474802 -0.00638455 0)
(-0.0459683 -0.00692679 0)
(-0.0443371 -0.00742899 0)
(-0.0425958 -0.00788732 0)
(-0.0407546 -0.00829807 0)
(-0.0388242 -0.00865764 0)
(-0.0368165 -0.00896259 0)
(-0.0347435 -0.0092097 0)
(-0.0326184 -0.00939597 0)
(-0.0304547 -0.00951867 0)
(-0.0282663 -0.0095754 0)
(-0.0260679 -0.00956413 0)
(-0.0238742 -0.00948327 0)
(-0.0217002 -0.00933172 0)
(-0.0195612 -0.00910894 0)
(-0.0174723 -0.00881507 0)
(-0.0154484 -0.00845099 0)
(-0.0135042 -0.0080185 0)
(-0.0116538 -0.00752039 0)
(-0.00991054 -0.0069607 0)
(-0.00828683 -0.00634488 0)
(-0.00679386 -0.00568007 0)
(-0.00544133 -0.00497543 0)
(-0.00423714 -0.00424252 0)
(-0.00318702 -0.00349576 0)
(-0.00229419 -0.00275297 0)
(-0.0015589 -0.00203604 0)
(-0.000977803 -0.00137155 0)
(-0.000543329 -0.000791568 0)
(-0.000242143 -0.000334224 0)
(-5.5473e-05 -4.40452e-05 0)
(-7.83432e-05 0.000145899 0)
(-0.000336981 0.000639822 0)
(-0.000738078 0.00129932 0)
(-0.00129816 0.00207725 0)
(-0.00202749 0.00293282 0)
(-0.00293022 0.00383155 0)
(-0.00400631 0.0047448 0)
(-0.00525238 0.00564905 0)
(-0.00666237 0.00652524 0)
(-0.00822801 0.00735813 0)
(-0.00993918 0.00813571 0)
(-0.0117842 0.00884869 0)
(-0.0137503 0.00949003 0)
(-0.0158235 0.0100546 0)
(-0.0179893 0.0105389 0)
(-0.0202326 0.0109407 0)
(-0.0225377 0.0112589 0)
(-0.0248891 0.0114933 0)
(-0.027271 0.0116444 0)
(-0.0296677 0.0117135 0)
(-0.0320639 0.0117021 0)
(-0.0344443 0.0116126 0)
(-0.0367942 0.0114474 0)
(-0.0390993 0.0112094 0)
(-0.0413457 0.0109016 0)
(-0.0435203 0.0105272 0)
(-0.0456105 0.0100899 0)
(-0.0476042 0.00959312 0)
(-0.0494902 0.00904066 0)
(-0.0512581 0.00843637 0)
(-0.052898 0.0077842 0)
(-0.054401 0.00708819 0)
(-0.0557588 0.00635245 0)
(-0.0569641 0.00558117 0)
(-0.0580104 0.00477863 0)
(-0.0588919 0.00394914 0)
(-0.0596039 0.00309714 0)
(-0.0601423 0.00222707 0)
(-0.0605042 0.00134348 0)
(-0.0606873 0.000450985 0)
(-0.0606904 -0.000445756 0)
(-0.0605133 -0.00134201 0)
(-0.0601564 -0.00223299 0)
(-0.0596215 -0.00311386 0)
(-0.058911 -0.00397973 0)
(-0.0580283 -0.00482569 0)
(-0.056978 -0.00564679 0)
(-0.0557654 -0.00643809 0)
(-0.0543968 -0.00719465 0)
(-0.0528795 -0.00791155 0)
(-0.0512218 -0.00858392 0)
(-0.0494329 -0.00920698 0)
(-0.0475226 -0.00977602 0)
(-0.0455021 -0.0102865 0)
(-0.0433829 -0.010734 0)
(-0.0411778 -0.0111144 0)
(-0.0389 -0.0114237 0)
(-0.0365634 -0.0116583 0)
(-0.0341828 -0.0118149 0)
(-0.0317733 -0.0118907 0)
(-0.0293506 -0.0118831 0)
(-0.0269305 -0.0117902 0)
(-0.0245295 -0.0116109 0)
(-0.0221637 -0.0113446 0)
(-0.0198496 -0.0109914 0)
(-0.0176034 -0.0105526 0)
(-0.0154407 -0.0100303 0)
(-0.013377 -0.00942801 0)
(-0.0114268 -0.00875063 0)
(-0.00960354 -0.00800467 0)
(-0.00791968 -0.00719859 0)
(-0.00638609 -0.00634311 0)
(-0.0050119 -0.0054516 0)
(-0.00380417 -0.00454054 0)
(-0.00276754 -0.00363 0)
(-0.00190378 -0.00274429 0)
(-0.00121121 -0.00191248 0)
(-0.000683941 -0.00116907 0)
(-0.000310068 -0.000554374 0)
(-7.17541e-05 -0.000114591 0)
(-9.5106e-05 0.000241652 0)
(-0.000406833 0.000927739 0)
(-0.000882757 0.00177989 0)
(-0.0015384 0.00275015 0)
(-0.00238237 0.00379639 0)
(-0.00341683 0.00488244 0)
(-0.00463978 0.00597781 0)
(-0.00604602 0.00705714 0)
(-0.00762779 0.00809962 0)
(-0.0093753 0.00908839 0)
(-0.011277 0.01001 0)
(-0.01332 0.010854 0)
(-0.0154902 0.0116123 0)
(-0.0177726 0.012279 0)
(-0.0201514 0.0128499 0)
(-0.0226104 0.0133225 0)
(-0.025133 0.0136952 0)
(-0.0277025 0.013968 0)
(-0.030302 0.0141412 0)
(-0.0329149 0.0142163 0)
(-0.0355246 0.0141952 0)
(-0.0381151 0.0140804 0)
(-0.0406706 0.013875 0)
(-0.0431757 0.0135821 0)
(-0.0456158 0.0132055 0)
(-0.0479767 0.012749 0)
(-0.0502449 0.0122168 0)
(-0.0524077 0.0116132 0)
(-0.0544531 0.0109426 0)
(-0.0563698 0.0102097 0)
(-0.0581473 0.00941919 0)
(-0.0597761 0.00857592 0)
(-0.0612474 0.00768484 0)
(-0.0625533 0.00675101 0)
(-0.0636869 0.00577955 0)
(-0.0646419 0.00477568 0)
(-0.0654132 0.00374472 0)
(-0.0659967 0.00269205 0)
(-0.066389 0.00162314 0)
(-0.0665879 0.000543542 0)
(-0.066592 -0.000541128 0)
(-0.066401 -0.00162517 0)
(-0.0660155 -0.00270282 0)
(-0.0654372 -0.00376826 0)
(-0.0646688 -0.00481561 0)
(-0.063714 -0.00583896 0)
(-0.0625776 -0.00683238 0)
(-0.0612652 -0.00778991 0)
(-0.0597837 -0.00870564 0)
(-0.0581408 -0.00957365 0)
(-0.0563454 -0.0103881 0)
(-0.0544071 -0.0111433 0)
(-0.0523368 -0.0118336 0)
(-0.050146 -0.0124536 0)
(-0.0478474 -0.0129979 0)
(-0.0454542 -0.0134617 0)
(-0.0429809 -0.0138403 0)
(-0.0404421 -0.0141292 0)
(-0.0378537 -0.0143247 0)
(-0.0352317 -0.0144233 0)
(-0.0325928 -0.0144222 0)
(-0.0299541 -0.0143191 0)
(-0.027333 -0.0141126 0)
(-0.0247469 -0.0138021 0)
(-0.0222133 -0.0133878 0)
(-0.0197495 -0.0128713 0)
(-0.0173725 -0.0122552 0)
(-0.0150986 -0.0115436 0)
(-0.0129437 -0.0107421 0)
(-0.0109224 -0.00985844 0)
(-0.00904842 -0.00890227 0)
(-0.0073339 -0.00788582 0)
(-0.00578935 -0.00682414 0)
(-0.00442332 -0.0057356 0)
(-0.00324205 -0.0046423 0)
(-0.00224902 -0.00357061 0)
(-0.00144439 -0.00255172 0)
(-0.000824042 -0.00162201 0)
(-0.000377556 -0.000823386 0)
(-8.792e-05 -0.000203035 0)
(-0.000111545 0.000355546 0)
(-0.0004754 0.00126539 0)
(-0.00102519 0.00233739 0)
(-0.00177557 0.00352334 0)
(-0.00273354 0.00478026 0)
(-0.00389928 0.00607077 0)
(-0.00526871 0.00736296 0)
(-0.00683466 0.00862996 0)
(-0.00858757 0.00984947 0)
(-0.010516 0.0110033 0)
(-0.0126069 0.0120767 0)
(-0.0148459 0.013058 0)
(-0.0172178 0.0139384 0)
(-0.0197061 0.0147112 0)
(-0.0222942 0.0153716 0)
(-0.0249645 0.0159167 0)
(-0.0276996 0.0163448 0)
(-0.0304815 0.0166556 0)
(-0.0332926 0.0168496 0)
(-0.036115 0.0169285 0)
(-0.0389314 0.0168944 0)
(-0.0417247 0.0167502 0)
(-0.0444781 0.0164993 0)
(-0.0471756 0.0161457 0)
(-0.0498016 0.0156934 0)
(-0.0523411 0.0151471 0)
(-0.0547799 0.0145116 0)
(-0.0571044 0.0137919 0)
(-0.059302 0.0129933 0)
(-0.0613608 0.0121212 0)
(-0.0632697 0.0111812 0)
(-0.0650185 0.0101789 0)
(-0.066598 0.00912023 0)
(-0.0679999 0.00801113 0)
(-0.0692166 0.00685765 0)
(-0.0702418 0.00566594 0)
(-0.07107 0.00444229 0)
(-0.0716967 0.00319303 0)
(-0.0721185 0.00192464 0)
(-0.0723328 0.000643662 0)
(-0.0723384 -0.000643269 0)
(-0.0721348 -0.00192943 0)
(-0.0717227 -0.00320802 0)
(-0.0711039 -0.00447218 0)
(-0.0702812 -0.00571497 0)
(-0.0692585 -0.00692943 0)
(-0.0680408 -0.00810857 0)
(-0.0666342 -0.00924538 0)
(-0.0650458 -0.0103329 0)
(-0.0632839 -0.0113641 0)
(-0.0613576 -0.0123323 0)
(-0.0592774 -0.0132306 0)
(-0.0570545 -0.0140525 0)
(-0.0547012 -0.0147915 0)
(-0.0522309 -0.0154415 0)
(-0.0496577 -0.0159967 0)
(-0.0469965 -0.0164516 0)
(-0.0442631 -0.0168012 0)
(-0.0414742 -0.0170408 0)
(-0.0386467 -0.0171665 0)
(-0.0357984 -0.0171751 0)
(-0.0329473 -0.017064 0)
(-0.0301118 -0.0168314 0)
(-0.0273104 -0.0164768 0)
(-0.0245617 -0.0160005 0)
(-0.021884 -0.0154041 0)
(-0.0192956 -0.0146908 0)
(-0.016814 -0.0138653 0)
(-0.0144561 -0.012934 0)
(-0.012238 -0.0119056 0)
(-0.0101745 -0.010791 0)
(-0.00827936 -0.00960384 0)
(-0.00656447 -0.00836066 0)
(-0.00504001 -0.00708154 0)
(-0.00371397 -0.00579036 0)
(-0.00259169 -0.00451531 0)
(-0.00167522 -0.00328925 0)
(-0.000962319 -0.00215007 0)
(-0.000443961 -0.00114078 0)
(-0.000103808 -0.000309058 0)
(-0.000127577 0.000487113 0)
(-0.000542348 0.00165182 0)
(-0.00116465 0.00297077 0)
(-0.00200846 0.00439585 0)
(-0.00307926 0.00588361 0)
(-0.00437523 0.00739586 0)
(-0.00589021 0.00889962 0)
(-0.00761497 0.0103668 0)
(-0.00953805 0.011774 0)
(-0.0116462 0.0131017 0)
(-0.0139249 0.0143342 0)
(-0.0163583 0.0154589 0)
(-0.0189296 0.016466 0)
(-0.0216214 0.0173483 0)
(-0.0244156 0.0181006 0)
(-0.0272937 0.0187195 0)
(-0.0302371 0.0192031 0)
(-0.0332269 0.0195512 0)
(-0.0362445 0.0197643 0)
(-0.039271 0.0198443 0)
(-0.0422883 0.0197936 0)
(-0.0452783 0.0196155 0)
(-0.0482236 0.019314 0)
(-0.0511071 0.0188935 0)
(-0.0539126 0.0183587 0)
(-0.0566243 0.0177149 0)
(-0.0592273 0.0169678 0)
(-0.0617074 0.016123 0)
(-0.0640513 0.0151867 0)
(-0.0662465 0.0141652 0)
(-0.0682815 0.0130648 0)
(-0.0701455 0.0118922 0)
(-0.0718288 0.0106543 0)
(-0.0733226 0.00935775 0)
(-0.0746193 0.00800973 0)
(-0.075712 0.00661737 0)
(-0.0765949 0.00518793 0)
(-0.0772635 0.0037288 0)
(-0.0777139 0.00224746 0)
(-0.0779437 0.00075153 0)
(-0.0779514 -0.000751295 0)
(-0.0777365 -0.00225321 0)
(-0.0772998 -0.00374634 0)
(-0.0766431 -0.0052227 0)
(-0.0757693 -0.00667428 0)
(-0.0746826 -0.00809299 0)
(-0.073388 -0.00947072 0)
(-0.071892 -0.0107994 0)
(-0.070202 -0.0120708 0)
(-0.0683267 -0.0132771 0)
(-0.0662756 -0.0144102 0)
(-0.0640596 -0.0154623 0)
(-0.0616906 -0.0164259 0)
(-0.0591815 -0.0172935 0)
(-0.0565461 -0.018058 0)
(-0.0537992 -0.0187126 0)
(-0.0509567 -0.0192512 0)
(-0.0480351 -0.0196677 0)
(-0.0450517 -0.0199571 0)
(-0.0420244 -0.0201146 0)
(-0.038972 -0.0201366 0)
(-0.0359133 -0.0200201 0)
(-0.0328677 -0.0197632 0)
(-0.0298549 -0.0193651 0)
(-0.0268944 -0.0188261 0)
(-0.0240058 -0.0181483 0)
(-0.0212082 -0.0173351 0)
(-0.0185206 -0.0163917 0)
(-0.0159611 -0.0153254 0)
(-0.013547 -0.0141457 0)
(-0.0112947 -0.0128647 0)
(-0.00921923 -0.0114971 0)
(-0.00733424 -0.0100612 0)
(-0.00565159 -0.00857836 0)
(-0.00418112 -0.00707406 0)
(-0.00293011 -0.005578 0)
(-0.00190258 -0.00412446 0)
(-0.00109809 -0.00275246 0)
(-0.000508955 -0.00150577 0)
(-0.000119338 -0.000432243 0)
(-0.000143173 0.000635847 0)
(-0.000607552 0.00208595 0)
(-0.00130084 0.0036787 0)
(-0.00223651 0.0053663 0)
(-0.00341864 0.00710516 0)
(-0.00484346 0.00885654 0)
(-0.00650271 0.0105867 0)
(-0.00838509 0.0122667 0)
(-0.0104772 0.0138721 0)
(-0.0127639 0.0153824 0)
(-0.015229 0.0167811 0)
(-0.017855 0.0180548 0)
(-0.0206239 0.0191931 0)
(-0.0235169 0.020188 0)
(-0.0265147 0.021034 0)
(-0.0295977 0.0217275 0)
(-0.0327461 0.0222665 0)
(-0.0359401 0.0226507 0)
(-0.03916 0.0228808 0)
(-0.0423863 0.0229588 0)
(-0.0455998 0.0228877 0)
(-0.0487816 0.0226711 0)
(-0.0519136 0.0223135 0)
(-0.0549778 0.0218198 0)
(-0.0579574 0.0211956 0)
(-0.060836 0.0204468 0)
(-0.0635979 0.0195797 0)
(-0.0662285 0.018601 0)
(-0.0687137 0.0175176 0)
(-0.0710407 0.0163367 0)
(-0.0731973 0.0150656 0)
(-0.0751724 0.0137119 0)
(-0.0769559 0.0122833 0)
(-0.0785387 0.0107877 0)
(-0.0799125 0.00923317 0)
(-0.0810705 0.00762788 0)
(-0.0820067 0.00598015 0)
(-0.082716 0.00429844 0)
(-0.0831947 0.00259131 0)
(-0.08344 0.000867474 0)
(-0.0834505 -0.000864264 0)
(-0.0832257 -0.00259498 0)
(-0.0827663 -0.00431564 0)
(-0.0820741 -0.00601715 0)
(-0.0811522 -0.00769032 0)
(-0.0800048 -0.0093259 0)
(-0.0786372 -0.0109146 0)
(-0.0770562 -0.0124473 0)
(-0.0752693 -0.0139145 0)
(-0.0732855 -0.0153072 0)
(-0.0711148 -0.0166163 0)
(-0.0687685 -0.0178328 0)
(-0.0662589 -0.0189481 0)
(-0.0635995 -0.0199538 0)
(-0.0608045 -0.0208416 0)
(-0.0578896 -0.0216039 0)
(-0.0548711 -0.0222335 0)
(-0.0517663 -0.0227237 0)
(-0.0485933 -0.0230686 0)
(-0.0453709 -0.023263 0)
(-0.0421185 -0.0233025 0)
(-0.038856 -0.0231837 0)
(-0.0356039 -0.0229046 0)
(-0.0323826 -0.022464 0)
(-0.0292128 -0.0218625 0)
(-0.0261151 -0.0211021 0)
(-0.0231101 -0.0201865 0)
(-0.0202177 -0.0191217 0)
(-0.0174574 -0.0179154 0)
(-0.0148481 -0.0165781 0)
(-0.0124073 -0.0151228 0)
(-0.0101519 -0.0135655 0)
(-0.00809721 -0.0119255 0)
(-0.00625681 -0.0102257 0)
(-0.0046425 -0.00849285 0)
(-0.00326356 -0.00675795 0)
(-0.00212598 -0.00505641 0)
(-0.00123109 -0.00342815 0)
(-0.000572435 -0.00191744 0)
(-0.000134484 -0.000572144 0)
(-0.000158338 0.000801249 0)
(-0.000671025 0.00256665 0)
(-0.00143375 0.00445974 0)
(-0.00245961 0.00643317 0)
(-0.00375143 0.00844338 0)
(-0.00530353 0.0104514 0)
(-0.0071056 0.0124229 0)
(-0.00914425 0.0143284 0)
(-0.011404 0.0161425 0)
(-0.013868 0.0178442 0)
(-0.0165181 0.0194161 0)
(-0.0193354 0.0208443 0)
(-0.0223003 0.0221176 0)
(-0.0253926 0.023228 0)
(-0.0285918 0.0241693 0)
(-0.0318772 0.0249379 0)
(-0.0352278 0.0255318 0)
(-0.038623 0.0259506 0)
(-0.042042 0.0261953 0)
(-0.0454644 0.0262681 0)
(-0.0488702 0.0261724 0)
(-0.0522398 0.0259124 0)
(-0.0555542 0.0254931 0)
(-0.0587949 0.02492 0)
(-0.0619442 0.0241993 0)
(-0.0649852 0.0233379 0)
(-0.0679017 0.0223428 0)
(-0.0706784 0.0212214 0)
(-0.0733008 0.0199817 0)
(-0.0757556 0.0186317 0)
(-0.0780302 0.0171798 0)
(-0.0801131 0.0156343 0)
(-0.0819938 0.0140042 0)
(-0.0836628 0.0122983 0)
(-0.0851118 0.0105258 0)
(-0.0863334 0.00869581 0)
(-0.0873215 0.00681782 0)
(-0.0880708 0.00490135 0)
(-0.0885776 0.00295612 0)
(-0.0888388 0.000991961 0)
(-0.088853 -0.000981174 0)
(-0.0886196 -0.00295319 0)
(-0.0881392 -0.0049139 0)
(-0.0874138 -0.00685299 0)
(-0.0864465 -0.0087601 0)
(-0.0852417 -0.0106248 0)