/*--------------------------------*- C++ -*----------------------------------*\
| =========                 |                                                 |
| \\      /  F ield         | OpenFOAM: The Open Source CFD Toolbox           |
|  \\    /   O peration     | Version:  4.1                                   |
|   \\  /    A nd           | Web:      www.OpenFOAM.org                      |
|    \\/     M anipulation  |                                                 |
\*---------------------------------------------------------------------------*/
FoamFile
{
    version     2.0;
    format      ascii;
    class       volScalarField;
    location    "0.05";
    object      tauQGD;
}
// * * * * * * * * * * * * * * * * * * * * * * * * * * * * * * * * * * * * * //

dimensions      [0 0 1 0 0 0 0];

internalField   nonuniform List<scalar> 
3200
(
0.000125274
0.000125274
0.000125274
0.000125274
0.000125274
0.000125274
0.000125274
0.000125274
0.000125274
0.000125274
0.000125274
0.000125274
0.000125274
0.000125274
0.000125274
0.000125274
0.000125274
0.000125274
0.000125274
0.000125274
0.000125274
0.000125274
0.000125274
0.000125274
0.000125274
0.000125274
0.000125274
0.000125274
0.000125274
0.000125274
0.000125274
0.000125274
0.000125274
0.000125274
0.000125274
0.000125274
0.000125274
0.000125274
0.000125274
0.000125274
0.000125274
0.000125274
0.000125274
0.000125274
0.000125274
0.000125274
0.000125274
0.000125274
0.000125274
0.000125274
0.000125274
0.000125274
0.000125274
0.000125274
0.000125274
0.000125274
0.000125274
0.000125274
0.000125274
0.000125274
0.000125274
0.000125274
0.000125274
0.000125274
0.000125274
0.000125274
0.000125274
0.000125274
0.000125274
0.000125274
0.000125274
0.000125274
0.000125274
0.000125274
0.000125274
0.000125274
0.000125274
0.000125274
0.000125274
0.000125274
0.000125274
0.000125274
0.000125274
0.000125274
0.000125274
0.000125274
0.000125274
0.000125274
0.000125274
0.000125274
0.000125274
0.000125274
0.000125274
0.000125274
0.000125274
0.000125274
0.000125274
0.000125274
0.000125274
0.000125274
0.000125274
0.000125274
0.000125274
0.000125274
0.000125274
0.000125274
0.000125274
0.000125274
0.000125274
0.000125274
0.000125274
0.000125274
0.000125274
0.000125274
0.000125274
0.000125274
0.000125274
0.000125274
0.000125274
0.000125274
0.000125274
0.000125274
0.000125274
0.000125274
0.000125274
0.000125274
0.000125274
0.000125274
0.000125274
0.000125274
0.000125274
0.000125274
0.000125274
0.000125274
0.000125274
0.000125274
0.000125274
0.000125274
0.000125274
0.000125274
0.000125274
0.000125274
0.000125274
0.000125274
0.000125274
0.000125274
0.000125274
0.000125274
0.000125274
0.000125274
0.000125274
0.000125274
0.000125274
0.000125274
0.000125274
0.000125274
0.000125274
0.000125274
0.000125274
0.000125274
0.000125274
0.000125274
0.000125274
0.000125274
0.000125274
0.000125274
0.000125274
0.000125274
0.000125274
0.000125274
0.000125274
0.000125274
0.000125274
0.000125274
0.000125274
0.000125274
0.000125274
0.000125274
0.000125274
0.000125274
0.000125274
0.000125274
0.000125274
0.000125274
0.000125274
0.000125274
0.000125274
0.000125274
0.000125274
0.000125274
0.000125274
0.000125274
0.000125274
0.000125274
0.000125274
0.000125274
0.000125274
0.000125274
0.000125274
0.000125274
0.000125274
0.000125274
0.000125274
0.000125274
0.000125274
0.000125274
0.000125274
0.000125274
0.000125274
0.000125274
0.000125274
0.000125274
0.000125274
0.000125274
0.000125274
0.000125274
0.000125274
0.000125274
0.000125274
0.000125274
0.000125274
0.000125274
0.000125274
0.000125274
0.000125274
0.000125274
0.000125274
0.000125274
0.000125274
0.000125274
0.000125274
0.000125274
0.000125274
0.000125274
0.000125274
0.000125274
0.000125274
0.000125274
0.000125274
0.000125274
0.000125274
0.000125274
0.000125274
0.000125274
0.000125274
0.000125274
0.000125274
0.000125274
0.000125274
0.000125274
0.000125274
0.000125274
0.000125274
0.000125274
0.000125274
0.000125274
0.000125274
0.000125274
0.000125274
0.000125274
0.000125274
0.000125274
0.000125274
0.000125274
0.000125274
0.000125274
0.000125274
0.000125274
0.000125274
0.000125274
0.000125274
0.000125274
0.000125274
0.000125274
0.000125274
0.000125274
0.000125274
0.000125274
0.000125274
0.000125274
0.000125274
0.000125274
0.000125274
0.000125274
0.000125274
0.000125274
0.000125274
0.000125274
0.000125274
0.000125274
0.000125274
0.000125274
0.000125274
0.000125274
0.000125274
0.000125274
0.000125274
0.000125274
0.000125274
0.000125274
0.000125274
0.000125274
0.000125274
0.000125274
0.000125274
0.000125274
0.000125274
0.000125274
0.000125274
0.000125274
0.000125274
0.000125274
0.000125274
0.000125274
0.000125274
0.000125274
0.000125274
0.000125274
0.000125274
0.000125274
0.000125274
0.000125274
0.000125274
0.000125274
0.000125274
0.000125274
0.000125274
0.000125274
0.000125274
0.000125274
0.000125274
0.000125274
0.000125274
0.000125274
0.000125274
0.000125274
0.000125274
0.000125274
0.000125274
0.000125274
0.000125274
0.000125274
0.000125274
0.000125274
0.000125274
0.000125274
0.000125274
0.000125274
0.000125274
0.000125274
0.000125274
0.000125274
0.000125274
0.000125274
0.000125274
0.000125274
0.000125274
0.000125274
0.000125274
0.000125274
0.000125274
0.000125274
0.000125274
0.000125274
0.000125274
0.000125274
0.000125274
0.000125274
0.000125274
0.000125274
0.000125274
0.000125274
0.000125274
0.000125274
0.000125274
0.000125274
0.000125274
0.000125274
0.000125274
0.000125274
0.000125274
0.000125274
0.000125274
0.000125274
0.000125274
0.000125274
0.000125274
0.000125274
0.000125274
0.000125274
0.000125274
0.000125274
0.000125274
0.000125274
0.000125274
0.000125274
0.000125274
0.000125274
0.000125274
0.000125274
0.000125274
0.000125274
0.000125274
0.000125274
0.000125274
0.000125274
0.000125274
0.000125274
0.000125274
0.000125274
0.000125274
0.000125274
0.000125274
0.000125274
0.000125274
0.000125274
0.000125274
0.000125274
0.000125274
0.000125274
0.000125274
0.000125274
0.000125274
0.000125274
0.000125274
0.000125274
0.000125274
0.000125274
0.000125274
0.000125274
0.000125274
0.000125274
0.000125274
0.000125274
0.000125274
0.000125274
0.000125274
0.000125274
0.000125274
0.000125274
0.000125274
0.000125274
0.000125274
0.000125274
0.000125274
0.000125274
0.000125274
0.000125274
0.000125274
0.000125274
0.000125274
0.000125274
0.000125274
0.000125274
0.000125274
0.000125274
0.000125274
0.000125274
0.000125274
0.000125274
0.000125274
0.000125274
0.000125274
0.000125274
0.000125274
0.000125274
0.000125274
0.000125274
0.000125274
0.000125274
0.000125274
0.000125274
0.000125274
0.000125274
0.000125274
0.000125274
0.000125274
0.000125274
0.000125274
0.000125274
0.000125274
0.000125274
0.000125274
0.000125274
0.000125274
0.000125274
0.000125274
0.000125274
0.000125274
0.000125274
0.000125274
0.000125274
0.000125274
0.000125274
0.000125274
0.000125274
0.000125274
0.000125274
0.000125274
0.000125274
0.000125274
0.000125274
0.000125274
0.000125274
0.000125274
0.000125274
0.000125274
0.000125274
0.000125274
0.000125274
0.000125274
0.000125274
0.000125274
0.000125274
0.000125274
0.000125274
0.000125274
0.000125274
0.000125274
0.000125274
0.000125274
0.000125274
0.000125274
0.000125274
0.000125274
0.000125274
0.000125274
0.000125274
0.000125274
0.000125274
0.000125274
0.000125274
0.000125274
0.000125274
0.000125274
0.000125274
0.000125274
0.000125274
0.000125274
0.000125274
0.000125274
0.000125274
0.000125274
0.000125274
0.000125274
0.000125274
0.000125274
0.000125274
0.000125274
0.000125274
0.000125274
0.000125274
0.000125274
0.000125274
0.000125274
0.000125274
0.000125274
0.000125274
0.000125274
0.000125274
0.000125274
0.000125274
0.000125274
0.000125274
0.000125274
0.000125274
0.000125274
0.000125274
0.000125274
0.000125274
0.000125274
0.000125274
0.000125274
0.000125274
0.000125274
0.000125274
0.000125274
0.000125274
0.000125274
0.000125274
0.000125274
0.000125274
0.000125274
0.000125274
0.000125274
0.000125274
0.000125274
0.000125274
0.000125274
0.000125274
0.000125274
0.000125274
0.000125274
0.000125274
0.000125274
0.000125274
0.000125274
0.000125274
0.000125274
0.000125274
0.000125274
0.000125274
0.000125274
0.000125274
0.000125274
0.000125274
0.000125274
0.000125274
0.000125274
0.000125274
0.000125274
0.000125274
0.000125274
0.000125274
0.000125274
0.000125274
0.000125274
0.000125274
0.000125274
0.000125274
0.000125274
0.000125274
0.000125274
0.000125274
0.000125274
0.000125274
0.000125274
0.000125274
0.000125274
0.000125274
0.000125274
0.000125274
0.000125274
0.000125274
0.000125274
0.000125274
0.000125274
0.000125274
0.000125274
0.000125274
0.000125274
0.000125274
0.000125274
0.000125274
0.000125274
0.000125274
0.000125274
0.000125274
0.000125274
0.000125274
0.000125274
0.000125274
0.000125274
0.000125274
0.000125274
0.000125274
0.000125274
0.000125274
0.000125274
0.000125274
0.000125274
0.000125274
0.000125274
0.000125274
0.000125274
0.000125274
0.000125274
0.000125274
0.000125274
0.000125274
0.000125274
0.000125274
0.000125274
0.000125274
0.000125274
0.000125274
0.000125274
0.000125274
0.000125274
0.000125274
0.000125274
0.000125274
0.000125274
0.000125274
0.000125274
0.000125274
0.000125274
0.000125274
0.000125274
0.000125274
0.000125274
0.000125274
0.000125274
0.000125274
0.000125274
0.000125274
0.000125274
0.000125274
0.000125274
0.000125274
0.000125274
0.000125274
0.000125274
0.000125274
0.000125274
0.000125274
0.000125274
0.000125274
0.000125274
0.000125274
0.000125274
0.000125274
0.000125274
0.000125274
0.000125274
0.000125274
0.000125274
0.000125274
0.000125274
0.000125274
0.000125274
0.000125274
0.000125274
0.000125274
0.000125274
0.000125274
0.000125274
0.000125274
0.000125274
0.000125274
0.000125274
0.000125274
0.000125274
0.000125274
0.000125274
0.000125274
0.000125274
0.000125274
0.000125274
0.000125274
0.000125274
0.000125274
0.000125274
0.000125274
0.000125274
0.000125274
0.000125274
0.000125274
0.000125274
0.000125274
0.000125274
0.000125274
0.000125274
0.000125274
0.000125274
0.000125274
0.000125274
0.000125274
0.000125274
0.000125274
0.000125274
0.000125274
0.000125274
0.000125274
0.000125274
0.000125274
0.000125274
0.000125274
0.000125274
0.000125274
0.000125274
0.000125274
0.000125274
0.000125274
0.000125274
0.000125274
0.000125274
0.000125274
0.000125274
0.000125274
0.000125274
0.000125274
0.000125274
0.000125274
0.000125274
0.000125274
0.000125274
0.000125274
0.000125274
0.000125274
0.000125274
0.000125274
0.000125274
0.000125274
0.000125274
0.000125274
0.000125274
0.000125274
0.000125274
0.000125274
0.000125274
0.000125274
0.000125274
0.000125274
0.000125274
0.000125274
0.000125274
0.000125274
0.000125274
0.000125274
0.000125274
0.000125274
0.000125274
0.000125274
0.000125274
0.000125274
0.000125274
0.000125274
0.000125274
0.000125274
0.000125274
0.000125274
0.000125274
0.000125274
0.000125274
0.000125274
0.000125274
0.000125274
0.000125274
0.000125274
0.000125274
0.000125274
0.000125274
0.000125274
0.000125274
0.000125274
0.000125274
0.000125274
0.000125274
0.000125274
0.000125274
0.000125274
0.000125274
0.000125274
0.000125274
0.000125274
0.000125274
0.000125274
0.000125274
0.000125274
0.000125274
0.000125274
0.000125274
0.000125274
0.000125274
0.000125274
0.000125274
0.000125274
0.000125274
0.000125274
0.000125274
0.000125274
0.000125274
0.000125274
0.000125274
0.000125274
0.000125274
0.000125274
0.000125274
0.000125274
0.000125274
0.000125274
0.000125274
0.000125274
0.000125274
0.000125274
0.000125274
0.000125274
0.000125274
0.000125274
0.000125274
0.000125274
0.000125274
0.000125274
0.000125274
0.000125274
0.000125274
0.000125274
0.000125274
0.000125274
0.000125274
0.000125274
0.000125274
0.000125274
0.000125274
0.000125274
0.000125274
0.000125274
0.000125274
0.000125274
0.000125274
0.000125274
0.000125274
0.000125274
0.000125274
0.000125274
0.000125274
0.000125274
0.000125274
0.000125274
0.000125274
0.000125274
0.000125274
0.000125274
0.000125274
0.000125274
0.000125274
0.000125274
0.000125274
0.000125274
0.000125274
0.000125274
0.000125274
0.000125274
0.000125274
0.000125274
0.000125274
0.000125274
0.000125274
0.000125274
0.000125274
0.000125274
0.000125274
0.000125274
0.000125274
0.000125274
0.000125274
0.000125274
0.000125274
0.000125274
0.000125274
0.000125274
0.000125274
0.000125274
0.000125274
0.000125274
0.000125274
0.000125274
0.000125274
0.000125274
0.000125274
0.000125274
0.000125274
0.000125274
0.000125274
0.000125274
0.000125274
0.000125274
0.000125274
0.000125274
0.000125274
0.000125274
0.000125274
0.000125274
0.000125274
0.000125274
0.000125274
0.000125274
0.000125274
0.000125274
0.000125274
0.000125274
0.000125274
0.000125274
0.000125274
0.000125274
0.000125274
0.000125274
0.000125274
0.000125274
0.000125274
0.000125274
0.000125274
0.000125274
0.000125274
0.000125274
0.000125274
0.000125274
0.000125274
0.000125274
0.000125274
0.000125274
0.000125274
0.000125274
0.000125274
0.000125274
0.000125274
0.000125274
0.000125274
0.000125274
0.000125274
0.000125274
0.000125274
0.000125274
0.000125274
0.000125274
0.000125274
0.000125274
0.000125274
0.000125274
0.000125274
0.000125274
0.000125274
0.000125274
0.000125274
0.000125274
0.000125274
0.000125274
0.000125274
0.000125274
0.000125274
0.000125274
0.000125274
0.000125274
0.000125274
0.000125274
0.000125274
0.000125274
0.000125274
0.000125274
0.000125274
0.000125274
0.000125274
0.000125274
0.000125274
0.000125274
0.000125274
0.000125274
0.000125274
0.000125274
0.000125274
0.000125274
0.000125274
0.000125274
0.000125274
0.000125274
0.000125274
0.000125274
0.000125274
0.000125274
0.000125274
0.000125275
0.000125275
0.000125275
0.000125275
0.000125275
0.000125275
0.000125275
0.000125276
0.000125276
0.000125276
0.000125277
0.000125277
0.000125277
0.000125278
0.000125278
0.000125279
0.000125279
0.00012528
0.000125281
0.000125282
0.000125282
0.000125283
0.000125285
0.000125286
0.000125287
0.000125288
0.00012529
0.000125292
0.000125294
0.000125296
0.000125298
0.0001253
0.000125303
0.000125306
0.000125309
0.000125312
0.000125316
0.00012532
0.000125324
0.000125329
0.000125334
0.000125339
0.000125345
0.000125351
0.000125358
0.000125365
0.000125373
0.000125381
0.000125389
0.000125399
0.000125408
0.000125419
0.00012543
0.000125442
0.000125454
0.000125468
0.000125482
0.000125496
0.000125512
0.000125528
0.000125546
0.000125564
0.000125583
0.000125603
0.000125624
0.000125647
0.00012567
0.000125694
0.00012572
0.000125746
0.000125774
0.000125803
0.000125833
0.000125864
0.000125896
0.00012593
0.000125965
0.000126002
0.000126039
0.000126078
0.000126119
0.00012616
0.000126204
0.000126248
0.000126294
0.000126341
0.00012639
0.00012644
0.000126492
0.000126545
0.0001266
0.000126656
0.000126714
0.000126773
0.000126833
0.000126896
0.000126959
0.000127024
0.000127091
0.000127159
0.000127228
0.000127299
0.000127372
0.000127446
0.000127522
0.000127599
0.000127677
0.000127757
0.000127839
0.000127922
0.000128006
0.000128092
0.000128179
0.000128268
0.000128358
0.000128449
0.000128542
0.000128637
0.000128732
0.000128829
0.000128928
0.000129028
0.000129129
0.000129232
0.000129335
0.000129441
0.000129547
0.000129655
0.000129764
0.000129875
0.000129986
0.000130099
0.000130213
0.000130329
0.000130445
0.000130563
0.000130682
0.000130803
0.000130924
0.000131047
0.000131171
0.000131296
0.000131422
0.000131549
0.000131678
0.000131807
0.000131938
0.00013207
0.000132203
0.000132337
0.000132472
0.000132608
0.000132745
0.000132883
0.000133023
0.000133163
0.000133304
0.000133447
0.00013359
0.000133735
0.00013388
0.000134027
0.000134174
0.000134322
0.000134472
0.000134622
0.000134773
0.000134926
0.000135079
0.000135233
0.000135388
0.000135544
0.000135701
0.000135859
0.000136017
0.000136177
0.000136338
0.000136499
0.000136661
0.000136825
0.000136989
0.000137154
0.00013732
0.000137486
0.000137654
0.000137822
0.000137992
0.000138162
0.000138333
0.000138504
0.000138677
0.000138851
0.000139025
0.0001392
0.000139376
0.000139553
0.00013973
0.000139909
0.000140088
0.000140268
0.000140449
0.00014063
0.000140813
0.000140996
0.00014118
0.000141364
0.00014155
0.000141736
0.000141923
0.000142111
0.0001423
0.000142489
0.000142679
0.00014287
0.000143061
0.000143254
0.000143447
0.000143641
0.000143835
0.000144031
0.000144227
0.000144423
0.000144621
0.000144819
0.000145018
0.000145218
0.000145418
0.000145619
0.000145821
0.000146024
0.000146227
0.000146431
0.000146635
0.000146841
0.000147047
0.000147253
0.000147461
0.000147669
0.000147877
0.000148087
0.000148297
0.000148508
0.000148719
0.000148931
0.000149144
0.000149357
0.000149571
0.000149786
0.000150001
0.000150217
0.000150433
0.00015065
0.000150868
0.000151087
0.000151306
0.000151525
0.000151745
0.000151966
0.000152187
0.000152409
0.000152632
0.000152855
0.000153079
0.000153303
0.000153528
0.000153753
0.000153979
0.000154205
0.000154432
0.000154659
0.000154887
0.000155116
0.000155345
0.000155574
0.000155804
0.000156035
0.000156266
0.000156497
0.000156729
0.000156961
0.000157194
0.000157427
0.000157661
0.000157895
0.00015813
0.000158364
0.0001586
0.000158835
0.000159072
0.000159308
0.000159545
0.000159782
0.00016002
0.000160257
0.000160496
0.000160734
0.000160973
0.000161212
0.000161451
0.000161691
0.000161931
0.000162171
0.000162412
0.000162653
0.000162894
0.000163135
0.000163376
0.000163618
0.00016386
0.000164102
0.000164344
0.000164586
0.000164828
0.000165071
0.000165314
0.000165557
0.0001658
0.000166043
0.000166286
0.000166529
0.000166772
0.000167015
0.000167259
0.000167502
0.000167745
0.000167988
0.000168232
0.000168475
0.000168718
0.000168961
0.000169204
0.000169447
0.00016969
0.000169933
0.000170176
0.000170418
0.000170661
0.000170903
0.000171145
0.000171387
0.000171629
0.00017187
0.000172112
0.000172353
0.000172593
0.000172834
0.000173074
0.000173314
0.000173554
0.000173793
0.000174032
0.00017427
0.000174509
0.000174746
0.000174984
0.000175221
0.000175458
0.000175694
0.00017593
0.000176165
0.0001764
0.000176634
0.000176868
0.000177101
0.000177334
0.000177566
0.000177798
0.000178029
0.000178259
0.000178489
0.000178718
0.000178947
0.000179175
0.000179402
0.000179628
0.000179854
0.000180079
0.000180303
0.000180527
0.00018075
0.000180972
0.000181193
0.000181413
0.000181633
0.000181852
0.00018207
0.000182287
0.000182503
0.000182718
0.000182932
0.000183145
0.000183357
0.000183569
0.000183779
0.000183988
0.000184196
0.000184403
0.000184609
0.000184814
0.000185018
0.00018522
0.000185422
0.000185622
0.000185821
0.000186019
0.000186216
0.000186411
0.000186605
0.000186798
0.000186989
0.000187179
0.000187368
0.000187555
0.00018774
0.000187925
0.000188107
0.000188289
0.000188468
0.000188646
0.000188823
0.000188998
0.000189171
0.000189342
0.000189512
0.00018968
0.000189846
0.00019001
0.000190172
0.000190332
0.00019049
0.000190647
0.000190801
0.000190953
0.000191102
0.000191249
0.000191394
0.000191537
0.000191677
0.000191815
0.000191949
0.000192081
0.000192211
0.000192337
0.00019246
0.00019258
0.000192697
0.000192811
0.000192921
0.000193027
0.000193129
0.000193228
0.000193322
0.000193412
0.000193498
0.000193579
0.000193654
0.000193725
0.00019379
0.00019385
0.000193903
0.00019395
0.000193991
0.000194024
0.00019405
0.000194069
0.000194079
0.00019408
0.000194073
0.000194056
0.000194029
0.000193991
0.000193942
0.000193882
0.00019381
0.000193725
0.000193626
0.000193514
0.000193388
0.000193248
0.000193092
0.000192922
0.000192736
0.000192535
0.000192318
0.000192086
0.000191838
0.000191576
0.0001913
0.00019101
0.000190706
0.000190391
0.000190063
0.000189725
0.000189377
0.00018902
0.000188654
0.000188281
0.000187901
0.000187515
0.000187124
0.000186728
0.000186327
0.000185923
0.000185516
0.000185106
0.000184694
0.00018428
0.000183865
0.000183449
0.000183033
0.000182617
0.000182202
0.000181789
0.000181377
0.000180969
0.000180564
0.000180164
0.000179769
0.00017938
0.000178999
0.000178627
0.000178264
0.000177912
0.000177572
0.000177246
0.000176934
0.000176639
0.000176361
0.000176102
0.000175863
0.000175645
0.000175451
0.00017528
0.000175135
0.000175015
0.000174922
0.000174855
0.000174814
0.000174799
0.000174807
0.000174836
0.000174882
0.000174941
0.000175008
0.000175076
0.00017514
0.000175194
0.000175233
0.000175254
0.000175254
0.000175233
0.000175194
0.00017514
0.000175076
0.000175008
0.000174941
0.000174882
0.000174836
0.000174807
0.000174799
0.000174814
0.000174855
0.000174922
0.000175015
0.000175135
0.00017528
0.000175451
0.000175645
0.000175863
0.000176102
0.000176361
0.000176639
0.000176934
0.000177246
0.000177572
0.000177912
0.000178264
0.000178627
0.000178999
0.00017938
0.000179769
0.000180164
0.000180564
0.000180969
0.000181377
0.000181789
0.000182202
0.000182617
0.000183033
0.000183449
0.000183865
0.00018428
0.000184694
0.000185106
0.000185516
0.000185923
0.000186327
0.000186728
0.000187124
0.000187515
0.000187901
0.000188281
0.000188654
0.00018902
0.000189377
0.000189725
0.000190063
0.000190391
0.000190706
0.00019101
0.0001913
0.000191576
0.000191838
0.000192086
0.000192318
0.000192535
0.000192736
0.000192922
0.000193092
0.000193248
0.000193388
0.000193514
0.000193626
0.000193725
0.00019381
0.000193882
0.000193942
0.000193991
0.000194029
0.000194056
0.000194073
0.00019408
0.000194079
0.000194069
0.00019405
0.000194024
0.000193991
0.00019395
0.000193903
0.00019385
0.00019379
0.000193725
0.000193654
0.000193579
0.000193498
0.000193412
0.000193322
0.000193228
0.000193129
0.000193027
0.000192921
0.000192811
0.000192697
0.00019258
0.00019246
0.000192337
0.000192211
0.000192081
0.000191949
0.000191815
0.000191677
0.000191537
0.000191394
0.000191249
0.000191102
0.000190953
0.000190801
0.000190647
0.00019049
0.000190332
0.000190172
0.00019001
0.000189846
0.00018968
0.000189512
0.000189342
0.000189171
0.000188998
0.000188823
0.000188646
0.000188468
0.000188289
0.000188107
0.000187925
0.00018774
0.000187555
0.000187368
0.000187179
0.000186989
0.000186798
0.000186605
0.000186411
0.000186216
0.000186019
0.000185821
0.000185622
0.000185422
0.00018522
0.000185018
0.000184814
0.000184609
0.000184403
0.000184196
0.000183988
0.000183779
0.000183569
0.000183357
0.000183145
0.000182932
0.000182718
0.000182503
0.000182287
0.00018207
0.000181852
0.000181633
0.000181413
0.000181193
0.000180972
0.00018075
0.000180527
0.000180303
0.000180079
0.000179854
0.000179628
0.000179402
0.000179175
0.000178947
0.000178718
0.000178489
0.000178259
0.000178029
0.000177798
0.000177566
0.000177334
0.000177101
0.000176868
0.000176634
0.0001764
0.000176165
0.00017593
0.000175694
0.000175458
0.000175221
0.000174984
0.000174746
0.000174509
0.00017427
0.000174032
0.000173793
0.000173554
0.000173314
0.000173074
0.000172834
0.000172593
0.000172353
0.000172112
0.00017187
0.000171629
0.000171387
0.000171145
0.000170903
0.000170661
0.000170418
0.000170176
0.000169933
0.00016969
0.000169447
0.000169204
0.000168961
0.000168718
0.000168475
0.000168232
0.000167988
0.000167745
0.000167502
0.000167259
0.000167015
0.000166772
0.000166529
0.000166286
0.000166043
0.0001658
0.000165557
0.000165314
0.000165071
0.000164828
0.000164586
0.000164344
0.000164102
0.00016386
0.000163618
0.000163376
0.000163135
0.000162894
0.000162653
0.000162412
0.000162171
0.000161931
0.000161691
0.000161451
0.000161212
0.000160973
0.000160734
0.000160496
0.000160257
0.00016002
0.000159782
0.000159545
0.000159308
0.000159072
0.000158835
0.0001586
0.000158364
0.00015813
0.000157895
0.000157661
0.000157427
0.000157194
0.000156961
0.000156729
0.000156497
0.000156266
0.000156035
0.000155804
0.000155574
0.000155345
0.000155116
0.000154887
0.000154659
0.000154432
0.000154205
0.000153979
0.000153753
0.000153528
0.000153303
0.000153079
0.000152855
0.000152632
0.000152409
0.000152187
0.000151966
0.000151745
0.000151525
0.000151306
0.000151087
0.000150868
0.00015065
0.000150433
0.000150217
0.000150001
0.000149786
0.000149571
0.000149357
0.000149144
0.000148931
0.000148719
0.000148508
0.000148297
0.000148087
0.000147877
0.000147669
0.000147461
0.000147253
0.000147047
0.000146841
0.000146635
0.000146431
0.000146227
0.000146024
0.000145821
0.000145619
0.000145418
0.000145218
0.000145018
0.000144819
0.000144621
0.000144423
0.000144227
0.000144031
0.000143835
0.000143641
0.000143447
0.000143254
0.000143061
0.00014287
0.000142679
0.000142489
0.0001423
0.000142111
0.000141923
0.000141736
0.00014155
0.000141364
0.00014118
0.000140996
0.000140813
0.00014063
0.000140449
0.000140268
0.000140088
0.000139909
0.00013973
0.000139553
0.000139376
0.0001392
0.000139025
0.000138851
0.000138677
0.000138504
0.000138333
0.000138162
0.000137992
0.000137822
0.000137654
0.000137486
0.00013732
0.000137154
0.000136989
0.000136825
0.000136661
0.000136499
0.000136338
0.000136177
0.000136017
0.000135859
0.000135701
0.000135544
0.000135388
0.000135233
0.000135079
0.000134926
0.000134773
0.000134622
0.000134472
0.000134322
0.000134174
0.000134027
0.00013388
0.000133735
0.00013359
0.000133447
0.000133304
0.000133163
0.000133023
0.000132883
0.000132745
0.000132608
0.000132472
0.000132337
0.000132203
0.00013207
0.000131938
0.000131807
0.000131678
0.000131549
0.000131422
0.000131296
0.000131171
0.000131047
0.000130924
0.000130803
0.000130682
0.000130563
0.000130445
0.000130329
0.000130213
0.000130099
0.000129986
0.000129875
0.000129764
0.000129655
0.000129547
0.000129441
0.000129335
0.000129232
0.000129129
0.000129028
0.000128928
0.000128829
0.000128732
0.000128637
0.000128542
0.000128449
0.000128358
0.000128268
0.000128179
0.000128092
0.000128006
0.000127922
0.000127839
0.000127757
0.000127677
0.000127599
0.000127522
0.000127446
0.000127372
0.000127299
0.000127228
0.000127159
0.000127091
0.000127024
0.000126959
0.000126896
0.000126833
0.000126773
0.000126714
0.000126656
0.0001266
0.000126545
0.000126492
0.00012644
0.00012639
0.000126341
0.000126294
0.000126248
0.000126204
0.00012616
0.000126119
0.000126078
0.000126039
0.000126002
0.000125965
0.00012593
0.000125896
0.000125864
0.000125833
0.000125803
0.000125774
0.000125746
0.00012572
0.000125694
0.00012567
0.000125647
0.000125624
0.000125603
0.000125583
0.000125564
0.000125546
0.000125528
0.000125512
0.000125496
0.000125482
0.000125468
0.000125454
0.000125442
0.00012543
0.000125419
0.000125408
0.000125399
0.000125389
0.000125381
0.000125373
0.000125365
0.000125358
0.000125351
0.000125345
0.000125339
0.000125334
0.000125329
0.000125324
0.00012532
0.000125316
0.000125312
0.000125309
0.000125306
0.000125303
0.0001253
0.000125298
0.000125296
0.000125294
0.000125292
0.00012529
0.000125288
0.000125287
0.000125286
0.000125285
0.000125283
0.000125282
0.000125282
0.000125281
0.00012528
0.000125279
0.000125279
0.000125278
0.000125278
0.000125277
0.000125277
0.000125277
0.000125276
0.000125276
0.000125276
0.000125275
0.000125275
0.000125275
0.000125275
0.000125275
0.000125275
0.000125275
0.000125274
0.000125274
0.000125274
0.000125274
0.000125274
0.000125274
0.000125274
0.000125274
0.000125274
0.000125274
0.000125274
0.000125274
0.000125274
0.000125274
0.000125274
0.000125274
0.000125274
0.000125274
0.000125274
0.000125274
0.000125274
0.000125274
0.000125274
0.000125274
0.000125274
0.000125274
0.000125274
0.000125274
0.000125274
0.000125274
0.000125274
0.000125274
0.000125274
0.000125274
0.000125274
0.000125274
0.000125274
0.000125274
0.000125274
0.000125274
0.000125274
0.000125274
0.000125274
0.000125274
0.000125274
0.000125274
0.000125274
0.000125274
0.000125274
0.000125274
0.000125274
0.000125274
0.000125274
0.000125274
0.000125274
0.000125274
0.000125274
0.000125274
0.000125274
0.000125274
0.000125274
0.000125274
0.000125274
0.000125274
0.000125274
0.000125274
0.000125274
0.000125274
0.000125274
0.000125274
0.000125274
0.000125274
0.000125274
0.000125274
0.000125274
0.000125274
0.000125274
0.000125274
0.000125274
0.000125274
0.000125274
0.000125274
0.000125274
0.000125274
0.000125274
0.000125274
0.000125274
0.000125274
0.000125274
0.000125274
0.000125274
0.000125274
0.000125274
0.000125274
0.000125274
0.000125274
0.000125274
0.000125274
0.000125274
0.000125274
0.000125274
0.000125274
0.000125274
0.000125274
0.000125274
0.000125274
0.000125274
0.000125274
0.000125274
0.000125274
0.000125274
0.000125274
0.000125274
0.000125274
0.000125274
0.000125274
0.000125274
0.000125274
0.000125274
0.000125274
0.000125274
0.000125274
0.000125274
0.000125274
0.000125274
0.000125274
0.000125274
0.000125274
0.000125274
0.000125274
0.000125274
0.000125274
0.000125274
0.000125274
0.000125274
0.000125274
0.000125274
0.000125274
0.000125274
0.000125274
0.000125274
0.000125274
0.000125274
0.000125274
0.000125274
0.000125274
0.000125274
0.000125274
0.000125274
0.000125274
0.000125274
0.000125274
0.000125274
0.000125274
0.000125274
0.000125274
0.000125274
0.000125274
0.000125274
0.000125274
0.000125274
0.000125274
0.000125274
0.000125274
0.000125274
0.000125274
0.000125274
0.000125274
0.000125274
0.000125274
0.000125274
0.000125274
0.000125274
0.000125274
0.000125274
0.000125274
0.000125274
0.000125274
0.000125274
0.000125274
0.000125274
0.000125274
0.000125274
0.000125274
0.000125274
0.000125274
0.000125274
0.000125274
0.000125274
0.000125274
0.000125274
0.000125274
0.000125274
0.000125274
0.000125274
0.000125274
0.000125274
0.000125274
0.000125274
0.000125274
0.000125274
0.000125274
0.000125274
0.000125274
0.000125274
0.000125274
0.000125274
0.000125274
0.000125274
0.000125274
0.000125274
0.000125274
0.000125274
0.000125274
0.000125274
0.000125274
0.000125274
0.000125274
0.000125274
0.000125274
0.000125274
0.000125274
0.000125274
0.000125274
0.000125274
0.000125274
0.000125274
0.000125274
0.000125274
0.000125274
0.000125274
0.000125274
0.000125274
0.000125274
0.000125274
0.000125274
0.000125274
0.000125274
0.000125274
0.000125274
0.000125274
0.000125274
0.000125274
0.000125274
0.000125274
0.000125274
0.000125274
0.000125274
0.000125274
0.000125274
0.000125274
0.000125274
0.000125274
0.000125274
0.000125274
0.000125274
0.000125274
0.000125274
0.000125274
0.000125274
0.000125274
0.000125274
0.000125274
0.000125274
0.000125274
0.000125274
0.000125274
0.000125274
0.000125274
0.000125274
0.000125274
0.000125274
0.000125274
0.000125274
0.000125274
0.000125274
0.000125274
0.000125274
0.000125274
0.000125274
0.000125274
0.000125274
0.000125274
0.000125274
0.000125274
0.000125274
0.000125274
0.000125274
0.000125274
0.000125274