/*--------------------------------*- C++ -*----------------------------------*\
| =========                 |                                                 |
| \\      /  F ield         | OpenFOAM: The Open Source CFD Toolbox           |
|  \\    /   O peration     | Version:  4.1                                   |
|   \\  /    A nd           | Web:      www.OpenFOAM.org                      |
|    \\/     M anipulation  |                                                 |
\*---------------------------------------------------------------------------*/
FoamFile
{
    version     2.0;
    format      ascii;
    class       volVectorField;
    location    "0.05";
    object      U;
}
// * * * * * * * * * * * * * * * * * * * * * * * * * * * * * * * * * * * * * //

dimensions      [0 1 -1 0 0 0 0];

internalField   nonuniform List<vector> 
3200
(
(-2 0 0)
(-2 0 0)
(-2 0 0)
(-2 0 0)
(-2 0 0)
(-2 0 0)
(-2 0 0)
(-2 0 0)
(-2 0 0)
(-2 0 0)
(-2 0 0)
(-2 0 0)
(-2 0 0)
(-2 0 0)
(-2 0 0)
(-2 0 0)
(-2 0 0)
(-2 0 0)
(-2 0 0)
(-2 0 0)
(-2 0 0)
(-2 0 0)
(-2 0 0)
(-2 0 0)
(-2 0 0)
(-2 0 0)
(-2 0 0)
(-2 0 0)
(-2 0 0)
(-2 0 0)
(-2 0 0)
(-2 0 0)
(-2 0 0)
(-2 0 0)
(-2 0 0)
(-2 0 0)
(-2 0 0)
(-2 0 0)
(-2 0 0)
(-2 0 0)
(-2 0 0)
(-2 0 0)
(-2 0 0)
(-2 0 0)
(-2 0 0)
(-2 0 0)
(-2 0 0)
(-2 0 0)
(-2 0 0)
(-2 0 0)
(-2 0 0)
(-2 0 0)
(-2 0 0)
(-2 0 0)
(-2 0 0)
(-2 0 0)
(-2 0 0)
(-2 0 0)
(-2 0 0)
(-2 0 0)
(-2 0 0)
(-2 0 0)
(-2 0 0)
(-2 0 0)
(-2 0 0)
(-2 0 0)
(-2 0 0)
(-2 0 0)
(-2 0 0)
(-2 0 0)
(-2 0 0)
(-2 0 0)
(-2 0 0)
(-2 0 0)
(-2 0 0)
(-2 0 0)
(-2 0 0)
(-2 0 0)
(-2 0 0)
(-2 0 0)
(-2 0 0)
(-2 0 0)
(-2 0 0)
(-2 0 0)
(-2 0 0)
(-2 0 0)
(-2 0 0)
(-2 0 0)
(-2 0 0)
(-2 0 0)
(-2 0 0)
(-2 0 0)
(-2 0 0)
(-2 0 0)
(-2 0 0)
(-2 0 0)
(-2 0 0)
(-2 0 0)
(-2 0 0)
(-2 0 0)
(-2 0 0)
(-2 0 0)
(-2 0 0)
(-2 0 0)
(-2 0 0)
(-2 0 0)
(-2 0 0)
(-2 0 0)
(-2 0 0)
(-2 0 0)
(-2 0 0)
(-2 0 0)
(-2 0 0)
(-2 0 0)
(-2 0 0)
(-2 0 0)
(-2 0 0)
(-2 0 0)
(-2 0 0)
(-2 0 0)
(-2 0 0)
(-2 0 0)
(-2 0 0)
(-2 0 0)
(-2 0 0)
(-2 0 0)
(-2 0 0)
(-2 0 0)
(-2 0 0)
(-2 0 0)
(-2 0 0)
(-2 0 0)
(-2 0 0)
(-2 0 0)
(-2 0 0)
(-2 0 0)
(-2 0 0)
(-2 0 0)
(-2 0 0)
(-2 0 0)
(-2 0 0)
(-2 0 0)
(-2 0 0)
(-2 0 0)
(-2 0 0)
(-2 0 0)
(-2 0 0)
(-2 0 0)
(-2 0 0)
(-2 0 0)
(-2 0 0)
(-2 0 0)
(-2 0 0)
(-2 0 0)
(-2 0 0)
(-2 0 0)
(-2 0 0)
(-2 0 0)
(-2 0 0)
(-2 0 0)
(-2 0 0)
(-2 0 0)
(-2 0 0)
(-2 0 0)
(-2 0 0)
(-2 0 0)
(-2 0 0)
(-2 0 0)
(-2 0 0)
(-2 0 0)
(-2 0 0)
(-2 0 0)
(-2 0 0)
(-2 0 0)
(-2 0 0)
(-2 0 0)
(-2 0 0)
(-2 0 0)
(-2 0 0)
(-2 0 0)
(-2 0 0)
(-2 0 0)
(-2 0 0)
(-2 0 0)
(-2 0 0)
(-2 0 0)
(-2 0 0)
(-2 0 0)
(-2 0 0)
(-2 0 0)
(-2 0 0)
(-2 0 0)
(-2 0 0)
(-2 0 0)
(-2 0 0)
(-2 0 0)
(-2 0 0)
(-2 0 0)
(-2 0 0)
(-2 0 0)
(-2 0 0)
(-2 0 0)
(-2 0 0)
(-2 0 0)
(-2 0 0)
(-2 0 0)
(-2 0 0)
(-2 0 0)
(-2 0 0)
(-2 0 0)
(-2 0 0)
(-2 0 0)
(-2 0 0)
(-2 0 0)
(-2 0 0)
(-2 0 0)
(-2 0 0)
(-2 0 0)
(-2 0 0)
(-2 0 0)
(-2 0 0)
(-2 0 0)
(-2 0 0)
(-2 0 0)
(-2 0 0)
(-2 0 0)
(-2 0 0)
(-2 0 0)
(-2 0 0)
(-2 0 0)
(-2 0 0)
(-2 0 0)
(-2 0 0)
(-2 0 0)
(-2 0 0)
(-2 0 0)
(-2 0 0)
(-2 0 0)
(-2 0 0)
(-2 0 0)
(-2 0 0)
(-2 0 0)
(-2 0 0)
(-2 0 0)
(-2 0 0)
(-2 0 0)
(-2 0 0)
(-2 0 0)
(-2 0 0)
(-2 0 0)
(-2 0 0)
(-2 0 0)
(-2 0 0)
(-2 0 0)
(-2 0 0)
(-2 0 0)
(-2 0 0)
(-2 0 0)
(-2 0 0)
(-2 0 0)
(-2 0 0)
(-2 0 0)
(-2 0 0)
(-2 0 0)
(-2 0 0)
(-2 0 0)
(-2 0 0)
(-2 0 0)
(-2 0 0)
(-2 0 0)
(-2 0 0)
(-2 0 0)
(-2 0 0)
(-2 0 0)
(-2 0 0)
(-2 0 0)
(-2 0 0)
(-2 0 0)
(-2 0 0)
(-2 0 0)
(-2 0 0)
(-2 0 0)
(-2 0 0)
(-2 0 0)
(-2 0 0)
(-2 0 0)
(-2 0 0)
(-2 0 0)
(-2 0 0)
(-2 0 0)
(-2 0 0)
(-2 0 0)
(-2 0 0)
(-2 0 0)
(-2 0 0)
(-2 0 0)
(-2 0 0)
(-2 0 0)
(-2 0 0)
(-2 0 0)
(-2 0 0)
(-2 0 0)
(-2 0 0)
(-2 0 0)
(-2 0 0)
(-2 0 0)
(-2 0 0)
(-2 0 0)
(-2 0 0)
(-2 0 0)
(-2 0 0)
(-2 0 0)
(-2 0 0)
(-2 0 0)
(-2 0 0)
(-2 0 0)
(-2 0 0)
(-2 0 0)
(-2 0 0)
(-2 0 0)
(-2 0 0)
(-2 0 0)
(-2 0 0)
(-2 0 0)
(-2 0 0)
(-2 0 0)
(-2 0 0)
(-2 0 0)
(-2 0 0)
(-2 0 0)
(-2 0 0)
(-2 0 0)
(-2 0 0)
(-2 0 0)
(-2 0 0)
(-2 0 0)
(-2 0 0)
(-2 0 0)
(-2 0 0)
(-2 0 0)
(-2 0 0)
(-2 0 0)
(-2 0 0)
(-2 0 0)
(-2 0 0)
(-2 0 0)
(-2 0 0)
(-2 0 0)
(-2 0 0)
(-2 0 0)
(-2 0 0)
(-2 0 0)
(-2 0 0)
(-2 0 0)
(-2 0 0)
(-2 0 0)
(-2 0 0)
(-2 0 0)
(-2 0 0)
(-2 0 0)
(-2 0 0)
(-2 0 0)
(-2 0 0)
(-2 0 0)
(-2 0 0)
(-2 0 0)
(-2 0 0)
(-2 0 0)
(-2 0 0)
(-2 0 0)
(-2 0 0)
(-2 0 0)
(-2 0 0)
(-2 0 0)
(-2 0 0)
(-2 0 0)
(-2 0 0)
(-2 0 0)
(-2 0 0)
(-2 0 0)
(-2 0 0)
(-2 0 0)
(-2 0 0)
(-2 0 0)
(-2 0 0)
(-2 0 0)
(-2 0 0)
(-2 0 0)
(-2 0 0)
(-2 0 0)
(-2 0 0)
(-2 0 0)
(-2 0 0)
(-2 0 0)
(-2 0 0)
(-2 0 0)
(-2 0 0)
(-2 0 0)
(-2 0 0)
(-2 0 0)
(-2 0 0)
(-2 0 0)
(-2 0 0)
(-2 0 0)
(-2 0 0)
(-2 0 0)
(-2 0 0)
(-2 0 0)
(-2 0 0)
(-2 0 0)
(-2 0 0)
(-2 0 0)
(-2 0 0)
(-2 0 0)
(-2 0 0)
(-2 0 0)
(-2 0 0)
(-2 0 0)
(-2 0 0)
(-2 0 0)
(-2 0 0)
(-2 0 0)
(-2 0 0)
(-2 0 0)
(-2 0 0)
(-2 0 0)
(-2 0 0)
(-2 0 0)
(-2 0 0)
(-2 0 0)
(-2 0 0)
(-2 0 0)
(-2 0 0)
(-2 0 0)
(-2 0 0)
(-2 0 0)
(-2 0 0)
(-2 0 0)
(-2 0 0)
(-2 0 0)
(-2 0 0)
(-2 0 0)
(-2 0 0)
(-2 0 0)
(-2 0 0)
(-2 0 0)
(-2 0 0)
(-2 0 0)
(-2 0 0)
(-2 0 0)
(-2 0 0)
(-2 0 0)
(-2 0 0)
(-2 0 0)
(-2 0 0)
(-2 0 0)
(-2 0 0)
(-2 0 0)
(-2 0 0)
(-2 0 0)
(-2 0 0)
(-2 0 0)
(-2 0 0)
(-2 0 0)
(-2 0 0)
(-2 0 0)
(-2 0 0)
(-2 0 0)
(-2 0 0)
(-2 0 0)
(-2 0 0)
(-2 0 0)
(-2 0 0)
(-2 0 0)
(-2 0 0)
(-2 0 0)
(-2 0 0)
(-2 0 0)
(-2 0 0)
(-2 0 0)
(-2 0 0)
(-2 0 0)
(-2 0 0)
(-2 0 0)
(-2 0 0)
(-2 0 0)
(-2 0 0)
(-2 0 0)
(-2 0 0)
(-2 0 0)
(-2 0 0)
(-2 0 0)
(-2 0 0)
(-2 0 0)
(-2 0 0)
(-2 0 0)
(-2 0 0)
(-2 0 0)
(-2 0 0)
(-2 0 0)
(-2 0 0)
(-2 0 0)
(-2 0 0)
(-2 0 0)
(-2 0 0)
(-2 0 0)
(-2 0 0)
(-2 0 0)
(-2 0 0)
(-2 0 0)
(-2 0 0)
(-2 0 0)
(-2 0 0)
(-2 0 0)
(-2 0 0)
(-2 0 0)
(-2 0 0)
(-2 0 0)
(-2 0 0)
(-2 0 0)
(-2 0 0)
(-2 0 0)
(-2 0 0)
(-2 0 0)
(-2 0 0)
(-2 0 0)
(-2 0 0)
(-2 0 0)
(-2 0 0)
(-2 0 0)
(-2 0 0)
(-2 0 0)
(-2 0 0)
(-2 0 0)
(-2 0 0)
(-2 0 0)
(-2 0 0)
(-2 0 0)
(-2 0 0)
(-2 0 0)
(-2 0 0)
(-2 0 0)
(-2 0 0)
(-2 0 0)
(-2 0 0)
(-2 0 0)
(-2 0 0)
(-2 0 0)
(-2 0 0)
(-2 0 0)
(-2 0 0)
(-2 0 0)
(-2 0 0)
(-2 0 0)
(-2 0 0)
(-2 0 0)
(-2 0 0)
(-2 0 0)
(-2 0 0)
(-2 0 0)
(-2 0 0)
(-2 0 0)
(-2 0 0)
(-2 0 0)
(-2 0 0)
(-2 0 0)
(-2 0 0)
(-2 0 0)
(-2 0 0)
(-2 0 0)
(-2 0 0)
(-2 0 0)
(-2 0 0)
(-2 0 0)
(-2 0 0)
(-2 0 0)
(-2 0 0)
(-2 0 0)
(-2 0 0)
(-2 0 0)
(-2 0 0)
(-2 0 0)
(-2 0 0)
(-2 0 0)
(-2 0 0)
(-2 0 0)
(-2 0 0)
(-2 0 0)
(-2 0 0)
(-2 0 0)
(-2 0 0)
(-2 0 0)
(-2 0 0)
(-2 0 0)
(-2 0 0)
(-2 0 0)
(-2 0 0)
(-2 0 0)
(-2 0 0)
(-2 0 0)
(-2 0 0)
(-2 0 0)
(-2 0 0)
(-2 0 0)
(-2 0 0)
(-2 0 0)
(-2 0 0)
(-2 0 0)
(-2 0 0)
(-2 0 0)
(-2 0 0)
(-2 0 0)
(-2 0 0)
(-2 0 0)
(-2 0 0)
(-2 0 0)
(-2 0 0)
(-2 0 0)
(-2 0 0)
(-2 0 0)
(-2 0 0)
(-2 0 0)
(-2 0 0)
(-2 0 0)
(-2 0 0)
(-2 0 0)
(-2 0 0)
(-2 0 0)
(-2 0 0)
(-2 0 0)
(-2 0 0)
(-2 0 0)
(-2 0 0)
(-2 0 0)
(-2 0 0)
(-2 0 0)
(-2 0 0)
(-2 0 0)
(-2 0 0)
(-2 0 0)
(-2 0 0)
(-2 0 0)
(-2 0 0)
(-2 0 0)
(-2 0 0)
(-2 0 0)
(-2 0 0)
(-2 0 0)
(-2 0 0)
(-2 0 0)
(-2 0 0)
(-2 0 0)
(-2 0 0)
(-2 0 0)
(-2 0 0)
(-2 0 0)
(-2 0 0)
(-2 0 0)
(-2 0 0)
(-2 0 0)
(-2 0 0)
(-2 0 0)
(-2 0 0)
(-2 0 0)
(-2 0 0)
(-2 0 0)
(-2 0 0)
(-2 0 0)
(-2 0 0)
(-2 0 0)
(-2 0 0)
(-2 0 0)
(-2 0 0)
(-2 0 0)
(-2 0 0)
(-2 0 0)
(-2 0 0)
(-2 0 0)
(-2 0 0)
(-2 0 0)
(-2 0 0)
(-2 0 0)
(-2 0 0)
(-2 0 0)
(-2 0 0)
(-2 0 0)
(-2 0 0)
(-2 0 0)
(-2 0 0)
(-2 0 0)
(-2 0 0)
(-2 0 0)
(-2 0 0)
(-2 0 0)
(-2 0 0)
(-2 0 0)
(-2 0 0)
(-2 0 0)
(-2 0 0)
(-2 0 0)
(-2 0 0)
(-2 0 0)
(-2 0 0)
(-2 0 0)
(-2 0 0)
(-2 0 0)
(-2 0 0)
(-2 0 0)
(-2 0 0)
(-2 0 0)
(-2 0 0)
(-2 0 0)
(-2 0 0)
(-2 0 0)
(-2 0 0)
(-2 0 0)
(-2 0 0)
(-2 0 0)
(-2 0 0)
(-2 0 0)
(-2 0 0)
(-2 0 0)
(-2 0 0)
(-2 0 0)
(-2 0 0)
(-2 0 0)
(-2 0 0)
(-2 0 0)
(-2 0 0)
(-2 0 0)
(-2 0 0)
(-2 0 0)
(-2 0 0)
(-2 0 0)
(-2 0 0)
(-2 0 0)
(-2 0 0)
(-2 0 0)
(-2 0 0)
(-2 0 0)
(-2 0 0)
(-2 0 0)
(-2 0 0)
(-2 0 0)
(-2 0 0)
(-2 0 0)
(-2 0 0)
(-2 0 0)
(-2 0 0)
(-2 0 0)
(-2 0 0)
(-2 0 0)
(-2 0 0)
(-2 0 0)
(-2 0 0)
(-2 0 0)
(-2 0 0)
(-2 0 0)
(-2 0 0)
(-2 0 0)
(-2 0 0)
(-2 0 0)
(-2 0 0)
(-2 0 0)
(-2 0 0)
(-2 0 0)
(-2 0 0)
(-2 0 0)
(-2 0 0)
(-2 0 0)
(-2 0 0)
(-2 0 0)
(-2 0 0)
(-2 0 0)
(-2 0 0)
(-2 0 0)
(-2 0 0)
(-2 0 0)
(-2 0 0)
(-2 0 0)
(-2 0 0)
(-2 0 0)
(-2 0 0)
(-2 0 0)
(-2 0 0)
(-2 0 0)
(-2 0 0)
(-2 0 0)
(-2 0 0)
(-2 0 0)
(-2 0 0)
(-2 0 0)
(-2 0 0)
(-2 0 0)
(-2 0 0)
(-2 0 0)
(-2 0 0)
(-2 0 0)
(-2 0 0)
(-2 0 0)
(-2 0 0)
(-2 0 0)
(-2 0 0)
(-2 0 0)
(-2 0 0)
(-2 0 0)
(-2 0 0)
(-2 0 0)
(-2 0 0)
(-2 0 0)
(-2 0 0)
(-2 0 0)
(-2 0 0)
(-2 0 0)
(-2 0 0)
(-2 0 0)
(-2 0 0)
(-2 0 0)
(-2 0 0)
(-2 0 0)
(-2 0 0)
(-2 0 0)
(-2 0 0)
(-2 0 0)
(-2 0 0)
(-2 0 0)
(-2 0 0)
(-2 0 0)
(-2 0 0)
(-2 0 0)
(-2 0 0)
(-2 0 0)
(-2 0 0)
(-2 0 0)
(-2 0 0)
(-2 0 0)
(-2 0 0)
(-2 0 0)
(-2 0 0)
(-2 0 0)
(-2 0 0)
(-2 0 0)
(-2 0 0)
(-2 0 0)
(-2 0 0)
(-2 0 0)
(-2 0 0)
(-2 0 0)
(-2 0 0)
(-2 0 0)
(-2 0 0)
(-2 0 0)
(-2 0 0)
(-2 0 0)
(-2 0 0)
(-2 0 0)
(-2 0 0)
(-2 0 0)
(-2 0 0)
(-2 0 0)
(-2 0 0)
(-2 0 0)
(-2 0 0)
(-2 0 0)
(-2 0 0)
(-2 0 0)
(-2 0 0)
(-2 0 0)
(-2 0 0)
(-2 0 0)
(-2 0 0)
(-2 0 0)
(-2 0 0)
(-2 0 0)
(-2 0 0)
(-2 0 0)
(-2 0 0)
(-2 0 0)
(-2 0 0)
(-2 0 0)
(-2 0 0)
(-2 0 0)
(-2 0 0)
(-2 0 0)
(-2 0 0)
(-2 0 0)
(-2 0 0)
(-2 0 0)
(-2 0 0)
(-2 0 0)
(-2 0 0)
(-2 0 0)
(-2 0 0)
(-2 0 0)
(-2 0 0)
(-2 0 0)
(-2 0 0)
(-2 0 0)
(-2 0 0)
(-2 0 0)
(-2 0 0)
(-2 0 0)
(-2 0 0)
(-2 0 0)
(-2 0 0)
(-2 0 0)
(-2 0 0)
(-2 0 0)
(-2 0 0)
(-2 0 0)
(-2 0 0)
(-2 0 0)
(-2 0 0)
(-2 0 0)
(-2 0 0)
(-2 0 0)
(-2 0 0)
(-2 0 0)
(-2 0 0)
(-2 0 0)
(-2 0 0)
(-2 0 0)
(-2 0 0)
(-2 0 0)
(-2 0 0)
(-2 0 0)
(-2 0 0)
(-2 0 0)
(-2 0 0)
(-2 0 0)
(-2 0 0)
(-2 0 0)
(-2 0 0)
(-2 0 0)
(-2 0 0)
(-2 0 0)
(-2 0 0)
(-2 0 0)
(-2 0 0)
(-2 0 0)
(-2 0 0)
(-2 0 0)
(-2 0 0)
(-2 0 0)
(-2 0 0)
(-2 0 0)
(-2 0 0)
(-2 0 0)
(-2 0 0)
(-2 0 0)
(-2 0 0)
(-2 0 0)
(-2 0 0)
(-2 0 0)
(-2 0 0)
(-2 0 0)
(-2 0 0)
(-2 0 0)
(-2 0 0)
(-2 0 0)
(-2 0 0)
(-2 0 0)
(-2 0 0)
(-2 0 0)
(-2 0 0)
(-2 0 0)
(-2 0 0)
(-2 0 0)
(-2 0 0)
(-2 0 0)
(-2 0 0)
(-2 0 0)
(-2 0 0)
(-2 0 0)
(-2 0 0)
(-2 0 0)
(-2 0 0)
(-2 0 0)
(-2 0 0)
(-2 0 0)
(-2 0 0)
(-2 0 0)
(-2 0 0)
(-2 0 0)
(-2 0 0)
(-2 0 0)
(-2 0 0)
(-2 0 0)
(-2 0 0)
(-2 0 0)
(-2 0 0)
(-2 0 0)
(-2 0 0)
(-2 0 0)
(-2 0 0)
(-2 0 0)
(-2 0 0)
(-2 0 0)
(-2 0 0)
(-2 0 0)
(-2 0 0)
(-2 0 0)
(-2 0 0)
(-2 0 0)
(-2 0 0)
(-2 0 0)
(-2 0 0)
(-2 0 0)
(-2 0 0)
(-2 0 0)
(-2 0 0)
(-2 0 0)
(-2 0 0)
(-2 0 0)
(-2 0 0)
(-2 0 0)
(-2 0 0)
(-2 0 0)
(-2 0 0)
(-2 0 0)
(-2 0 0)
(-2 0 0)
(-2 0 0)
(-2 0 0)
(-2 0 0)
(-2 0 0)
(-2 0 0)
(-2 0 0)
(-2 0 0)
(-2 0 0)
(-2 0 0)
(-2 0 0)
(-2 0 0)
(-2 0 0)
(-2 0 0)
(-2 0 0)
(-2 0 0)
(-2 0 0)
(-2 0 0)
(-2 0 0)
(-1.99999 0 0)
(-1.99999 0 0)
(-1.99999 0 0)
(-1.99999 0 0)
(-1.99999 0 0)
(-1.99999 0 0)
(-1.99999 0 0)
(-1.99999 0 0)
(-1.99998 0 0)
(-1.99998 0 0)
(-1.99998 0 0)
(-1.99998 0 0)
(-1.99997 0 0)
(-1.99997 0 0)
(-1.99997 0 0)
(-1.99996 0 0)
(-1.99996 0 0)
(-1.99995 0 0)
(-1.99994 0 0)
(-1.99993 0 0)
(-1.99993 0 0)
(-1.99992 0 0)
(-1.99991 0 0)
(-1.99989 0 0)
(-1.99988 0 0)
(-1.99987 0 0)
(-1.99985 0 0)
(-1.99983 0 0)
(-1.99981 0 0)
(-1.99979 0 0)
(-1.99977 0 0)
(-1.99974 0 0)
(-1.99971 0 0)
(-1.99968 0 0)
(-1.99964 0 0)
(-1.9996 0 0)
(-1.99956 0 0)
(-1.99951 0 0)
(-1.99946 0 0)
(-1.99941 0 0)
(-1.99935 0 0)
(-1.99928 0 0)
(-1.99921 0 0)
(-1.99913 0 0)
(-1.99904 0 0)
(-1.99895 0 0)
(-1.99885 0 0)
(-1.99874 0 0)
(-1.99862 0 0)
(-1.99849 0 0)
(-1.99835 0 0)
(-1.9982 0 0)
(-1.99804 0 0)
(-1.99787 0 0)
(-1.99769 0 0)
(-1.99749 0 0)
(-1.99728 0 0)
(-1.99705 0 0)
(-1.99681 0 0)
(-1.99655 0 0)
(-1.99628 0 0)
(-1.99599 0 0)
(-1.99567 0 0)
(-1.99534 0 0)
(-1.99499 0 0)
(-1.99462 0 0)
(-1.99422 0 0)
(-1.99381 0 0)
(-1.99336 0 0)
(-1.9929 0 0)
(-1.99241 0 0)
(-1.99189 0 0)
(-1.99135 0 0)
(-1.99077 0 0)
(-1.99017 0 0)
(-1.98954 0 0)
(-1.98888 0 0)
(-1.98819 0 0)
(-1.98746 0 0)
(-1.98671 0 0)
(-1.98591 0 0)
(-1.98509 0 0)
(-1.98423 0 0)
(-1.98333 0 0)
(-1.9824 0 0)
(-1.98143 0 0)
(-1.98043 0 0)
(-1.97938 0 0)
(-1.9783 0 0)
(-1.97717 0 0)
(-1.97601 0 0)
(-1.97481 0 0)
(-1.97357 0 0)
(-1.97228 0 0)
(-1.97096 0 0)
(-1.96959 0 0)
(-1.96818 0 0)
(-1.96673 0 0)
(-1.96523 0 0)
(-1.9637 0 0)
(-1.96212 0 0)
(-1.96049 0 0)
(-1.95883 0 0)
(-1.95712 0 0)
(-1.95536 0 0)
(-1.95357 0 0)
(-1.95173 0 0)
(-1.94984 0 0)
(-1.94792 0 0)
(-1.94595 0 0)
(-1.94393 0 0)
(-1.94188 0 0)
(-1.93978 0 0)
(-1.93763 0 0)
(-1.93545 0 0)
(-1.93322 0 0)
(-1.93095 0 0)
(-1.92864 0 0)
(-1.92629 0 0)
(-1.92389 0 0)
(-1.92146 0 0)
(-1.91898 0 0)
(-1.91647 0 0)
(-1.91391 0 0)
(-1.91131 0 0)
(-1.90868 0 0)
(-1.906 0 0)
(-1.90329 0 0)
(-1.90053 0 0)
(-1.89774 0 0)
(-1.89492 0 0)
(-1.89205 0 0)
(-1.88915 0 0)
(-1.88621 0 0)
(-1.88324 0 0)
(-1.88023 0 0)
(-1.87719 0 0)
(-1.87411 0 0)
(-1.871 0 0)
(-1.86785 0 0)
(-1.86467 0 0)
(-1.86146 0 0)
(-1.85821 0 0)
(-1.85494 0 0)
(-1.85163 0 0)
(-1.84829 0 0)
(-1.84492 0 0)
(-1.84152 0 0)
(-1.83809 0 0)
(-1.83463 0 0)
(-1.83114 0 0)
(-1.82762 0 0)
(-1.82408 0 0)
(-1.8205 0 0)
(-1.8169 0 0)
(-1.81328 0 0)
(-1.80962 0 0)
(-1.80594 0 0)
(-1.80224 0 0)
(-1.7985 0 0)
(-1.79475 0 0)
(-1.79097 0 0)
(-1.78716 0 0)
(-1.78333 0 0)
(-1.77948 0 0)
(-1.7756 0 0)
(-1.77171 0 0)
(-1.76778 0 0)
(-1.76384 0 0)
(-1.75988 0 0)
(-1.75589 0 0)
(-1.75188 0 0)
(-1.74785 0 0)
(-1.7438 0 0)
(-1.73973 0 0)
(-1.73564 0 0)
(-1.73153 0 0)
(-1.72741 0 0)
(-1.72326 0 0)
(-1.71909 0 0)
(-1.71491 0 0)
(-1.7107 0 0)
(-1.70648 0 0)
(-1.70224 0 0)
(-1.69799 0 0)
(-1.69371 0 0)
(-1.68942 0 0)
(-1.68511 0 0)
(-1.68079 0 0)
(-1.67645 0 0)
(-1.67209 0 0)
(-1.66772 0 0)
(-1.66333 0 0)
(-1.65893 0 0)
(-1.65451 0 0)
(-1.65008 0 0)
(-1.64563 0 0)
(-1.64117 0 0)
(-1.63669 0 0)
(-1.6322 0 0)
(-1.62769 0 0)
(-1.62317 0 0)
(-1.61864 0 0)
(-1.61409 0 0)
(-1.60953 0 0)
(-1.60496 0 0)
(-1.60037 0 0)
(-1.59578 0 0)
(-1.59116 0 0)
(-1.58654 0 0)
(-1.5819 0 0)
(-1.57725 0 0)
(-1.57259 0 0)
(-1.56792 0 0)
(-1.56324 0 0)
(-1.55854 0 0)
(-1.55383 0 0)
(-1.54911 0 0)
(-1.54438 0 0)
(-1.53964 0 0)
(-1.53489 0 0)
(-1.53013 0 0)
(-1.52535 0 0)
(-1.52057 0 0)
(-1.51577 0 0)
(-1.51096 0 0)
(-1.50615 0 0)
(-1.50132 0 0)
(-1.49648 0 0)
(-1.49164 0 0)
(-1.48678 0 0)
(-1.48191 0 0)
(-1.47704 0 0)
(-1.47215 0 0)
(-1.46725 0 0)
(-1.46235 0 0)
(-1.45743 0 0)
(-1.45251 0 0)
(-1.44758 0 0)
(-1.44264 0 0)
(-1.43768 0 0)
(-1.43272 0 0)
(-1.42775 0 0)
(-1.42277 0 0)
(-1.41779 0 0)
(-1.41279 0 0)
(-1.40779 0 0)
(-1.40277 0 0)
(-1.39775 0 0)
(-1.39272 0 0)
(-1.38768 0 0)
(-1.38264 0 0)
(-1.37758 0 0)
(-1.37252 0 0)
(-1.36745 0 0)
(-1.36237 0 0)
(-1.35728 0 0)
(-1.35218 0 0)
(-1.34708 0 0)
(-1.34197 0 0)
(-1.33685 0 0)
(-1.33172 0 0)
(-1.32659 0 0)
(-1.32145 0 0)
(-1.3163 0 0)
(-1.31114 0 0)
(-1.30598 0 0)
(-1.3008 0 0)
(-1.29562 0 0)
(-1.29044 0 0)
(-1.28524 0 0)
(-1.28004 0 0)
(-1.27483 0 0)
(-1.26962 0 0)
(-1.26439 0 0)
(-1.25916 0 0)
(-1.25392 0 0)
(-1.24868 0 0)
(-1.24343 0 0)
(-1.23817 0 0)
(-1.23291 0 0)
(-1.22763 0 0)
(-1.22235 0 0)
(-1.21707 0 0)
(-1.21178 0 0)
(-1.20648 0 0)
(-1.20117 0 0)
(-1.19586 0 0)
(-1.19054 0 0)
(-1.18522 0 0)
(-1.17988 0 0)
(-1.17454 0 0)
(-1.1692 0 0)
(-1.16385 0 0)
(-1.15849 0 0)
(-1.15313 0 0)
(-1.14776 0 0)
(-1.14238 0 0)
(-1.137 0 0)
(-1.13161 0 0)
(-1.12621 0 0)
(-1.12081 0 0)
(-1.1154 0 0)
(-1.10999 0 0)
(-1.10457 0 0)
(-1.09915 0 0)
(-1.09372 0 0)
(-1.08828 0 0)
(-1.08283 0 0)
(-1.07739 0 0)
(-1.07193 0 0)
(-1.06647 0 0)
(-1.061 0 0)
(-1.05553 0 0)
(-1.05006 0 0)
(-1.04457 0 0)
(-1.03908 0 0)
(-1.03359 0 0)
(-1.02809 0 0)
(-1.02258 0 0)
(-1.01707 0 0)
(-1.01156 0 0)
(-1.00604 0 0)
(-1.00051 0 0)
(-0.994978 0 0)
(-0.989441 0 0)
(-0.983899 0 0)
(-0.978351 0 0)
(-0.972799 0 0)
(-0.967241 0 0)
(-0.961679 0 0)
(-0.956111 0 0)
(-0.950539 0 0)
(-0.944961 0 0)
(-0.939379 0 0)
(-0.933792 0 0)
(-0.928201 0 0)
(-0.922604 0 0)
(-0.917003 0 0)
(-0.911398 0 0)
(-0.905788 0 0)
(-0.900173 0 0)
(-0.894554 0 0)
(-0.88893 0 0)
(-0.883302 0 0)
(-0.87767 0 0)
(-0.872034 0 0)
(-0.866393 0 0)
(-0.860748 0 0)
(-0.855099 0 0)
(-0.849447 0 0)
(-0.84379 0 0)
(-0.838129 0 0)
(-0.832464 0 0)
(-0.826796 0 0)
(-0.821123 0 0)
(-0.815447 0 0)
(-0.809768 0 0)
(-0.804084 0 0)
(-0.798398 0 0)
(-0.792707 0 0)
(-0.787014 0 0)
(-0.781317 0 0)
(-0.775617 0 0)
(-0.769913 0 0)
(-0.764207 0 0)
(-0.758497 0 0)
(-0.752784 0 0)
(-0.747069 0 0)
(-0.74135 0 0)
(-0.735629 0 0)
(-0.729905 0 0)
(-0.724178 0 0)
(-0.718449 0 0)
(-0.712717 0 0)
(-0.706983 0 0)
(-0.701247 0 0)
(-0.695508 0 0)
(-0.689767 0 0)
(-0.684023 0 0)
(-0.678278 0 0)
(-0.672531 0 0)
(-0.666782 0 0)
(-0.661031 0 0)
(-0.655278 0 0)
(-0.649523 0 0)
(-0.643767 0 0)
(-0.63801 0 0)
(-0.632251 0 0)
(-0.626491 0 0)
(-0.62073 0 0)
(-0.614967 0 0)
(-0.609204 0 0)
(-0.603439 0 0)
(-0.597674 0 0)
(-0.591908 0 0)
(-0.586141 0 0)
(-0.580374 0 0)
(-0.574606 0 0)
(-0.568838 0 0)
(-0.56307 0 0)
(-0.557301 0 0)
(-0.551533 0 0)
(-0.545764 0 0)
(-0.539996 0 0)
(-0.534228 0 0)
(-0.528461 0 0)
(-0.522694 0 0)
(-0.516928 0 0)
(-0.511162 0 0)
(-0.505398 0 0)
(-0.499634 0 0)
(-0.493872 0 0)
(-0.488111 0 0)
(-0.482352 0 0)
(-0.476594 0 0)
(-0.470838 0 0)
(-0.465084 0 0)
(-0.459332 0 0)
(-0.453582 0 0)
(-0.447835 0 0)
(-0.44209 0 0)
(-0.436348 0 0)
(-0.430609 0 0)
(-0.424874 0 0)
(-0.419141 0 0)
(-0.413413 0 0)
(-0.407688 0 0)
(-0.401967 0 0)
(-0.396251 0 0)
(-0.390539 0 0)
(-0.384832 0 0)
(-0.37913 0 0)
(-0.373434 0 0)
(-0.367744 0 0)
(-0.362059 0 0)
(-0.356381 0 0)
(-0.35071 0 0)
(-0.345046 0 0)
(-0.33939 0 0)
(-0.333742 0 0)
(-0.328102 0 0)
(-0.322472 0 0)
(-0.316851 0 0)
(-0.31124 0 0)
(-0.305639 0 0)
(-0.30005 0 0)
(-0.294473 0 0)
(-0.288909 0 0)
(-0.283358 0 0)
(-0.277821 0 0)
(-0.272299 0 0)
(-0.266794 0 0)
(-0.261305 0 0)
(-0.255834 0 0)
(-0.250382 0 0)
(-0.244951 0 0)
(-0.239541 0 0)
(-0.234154 0 0)
(-0.228791 0 0)
(-0.223454 0 0)
(-0.218145 0 0)
(-0.212865 0 0)
(-0.207616 0 0)
(-0.202401 0 0)
(-0.197221 0 0)
(-0.192078 0 0)
(-0.186977 0 0)
(-0.181918 0 0)
(-0.176905 0 0)
(-0.171941 0 0)
(-0.167029 0 0)
(-0.162172 0 0)
(-0.157375 0 0)
(-0.152642 0 0)
(-0.147976 0 0)
(-0.143382 0 0)
(-0.138864 0 0)
(-0.134428 0 0)
(-0.130078 0 0)
(-0.12582 0 0)
(-0.121659 0 0)
(-0.117601 0 0)
(-0.113652 0 0)
(-0.109816 0 0)
(-0.1061 0 0)
(-0.102509 0 0)
(-0.0990478 0 0)
(-0.0957215 0 0)
(-0.0925342 0 0)
(-0.0894892 0 0)
(-0.0865892 0 0)
(-0.0838358 0 0)
(-0.0812295 0 0)
(-0.0787695 0 0)
(-0.0764539 0 0)
(-0.0742792 0 0)
(-0.0722406 0 0)
(-0.0703322 0 0)
(-0.0685465 0 0)
(-0.0668752 0 0)
(-0.0653093 0 0)
(-0.0638388 0 0)
(-0.0624537 0 0)
(-0.0611436 0 0)
(-0.0598983 0 0)
(-0.0587081 0 0)
(-0.0575636 0 0)
(-0.0564563 0 0)
(-0.0553783 0 0)
(-0.0543228 0 0)
(-0.0532837 0 0)
(-0.0522557 0 0)
(-0.0512347 0 0)
(-0.0502168 0 0)
(-0.0491994 0 0)
(-0.0481802 0 0)
(-0.0471573 0 0)
(-0.0461297 0 0)
(-0.0450964 0 0)
(-0.0440568 0 0)
(-0.0430108 0 0)
(-0.041958 0 0)
(-0.0408987 0 0)
(-0.039833 0 0)
(-0.0387612 0 0)
(-0.0376836 0 0)
(-0.0366006 0 0)
(-0.0355125 0 0)
(-0.0344199 0 0)
(-0.0333231 0 0)
(-0.0322225 0 0)
(-0.0311186 0 0)
(-0.0300118 0 0)
(-0.0289024 0 0)
(-0.0277907 0 0)
(-0.0266772 0 0)
(-0.025562 0 0)
(-0.0244456 0 0)
(-0.023328 0 0)
(-0.0222096 0 0)
(-0.0210904 0 0)
(-0.0199706 0 0)
(-0.0188502 0 0)
(-0.0177293 0 0)
(-0.0166077 0 0)
(-0.0154853 0 0)
(-0.0143618 0 0)
(-0.0132367 0 0)
(-0.0121094 0 0)
(-0.0109793 0 0)
(-0.00984555 0 0)
(-0.00870736 0 0)
(-0.00756396 0 0)
(-0.00641475 0 0)
(-0.00525947 0 0)
(-0.00409824 0 0)
(-0.00293167 0 0)
(-0.00176084 0 0)
(-0.000587262 0 0)
(0.000587262 0 0)
(0.00176084 0 0)
(0.00293167 0 0)
(0.00409824 0 0)
(0.00525947 0 0)
(0.00641475 0 0)
(0.00756396 0 0)
(0.00870736 0 0)
(0.00984555 0 0)
(0.0109793 0 0)
(0.0121094 0 0)
(0.0132367 0 0)
(0.0143618 0 0)
(0.0154853 0 0)
(0.0166077 0 0)
(0.0177293 0 0)
(0.0188502 0 0)
(0.0199706 0 0)
(0.0210904 0 0)
(0.0222096 0 0)
(0.023328 0 0)
(0.0244456 0 0)
(0.025562 0 0)
(0.0266772 0 0)
(0.0277907 0 0)
(0.0289024 0 0)
(0.0300118 0 0)
(0.0311186 0 0)
(0.0322225 0 0)
(0.0333231 0 0)
(0.0344199 0 0)
(0.0355125 0 0)
(0.0366006 0 0)
(0.0376836 0 0)
(0.0387612 0 0)
(0.039833 0 0)
(0.0408987 0 0)
(0.041958 0 0)
(0.0430108 0 0)
(0.0440568 0 0)
(0.0450964 0 0)
(0.0461297 0 0)
(0.0471573 0 0)
(0.0481802 0 0)
(0.0491994 0 0)
(0.0502168 0 0)
(0.0512347 0 0)
(0.0522557 0 0)
(0.0532837 0 0)
(0.0543228 0 0)
(0.0553783 0 0)
(0.0564563 0 0)
(0.0575636 0 0)
(0.0587081 0 0)
(0.0598983 0 0)
(0.0611436 0 0)
(0.0624537 0 0)
(0.0638388 0 0)
(0.0653093 0 0)
(0.0668752 0 0)
(0.0685465 0 0)
(0.0703322 0 0)
(0.0722406 0 0)
(0.0742792 0 0)
(0.0764539 0 0)
(0.0787695 0 0)
(0.0812295 0 0)
(0.0838358 0 0)
(0.0865892 0 0)
(0.0894892 0 0)
(0.0925342 0 0)
(0.0957215 0 0)
(0.0990478 0 0)
(0.102509 0 0)
(0.1061 0 0)
(0.109816 0 0)
(0.113652 0 0)
(0.117601 0 0)
(0.121659 0 0)
(0.12582 0 0)
(0.130078 0 0)
(0.134428 0 0)
(0.138864 0 0)
(0.143382 0 0)
(0.147976 0 0)
(0.152642 0 0)
(0.157375 0 0)
(0.162172 0 0)
(0.167029 0 0)
(0.171941 0 0)
(0.176905 0 0)
(0.181918 0 0)
(0.186977 0 0)
(0.192078 0 0)
(0.197221 0 0)
(0.202401 0 0)
(0.207616 0 0)
(0.212865 0 0)
(0.218145 0 0)
(0.223454 0 0)
(0.228791 0 0)
(0.234154 0 0)
(0.239541 0 0)
(0.244951 0 0)
(0.250382 0 0)
(0.255834 0 0)
(0.261305 0 0)
(0.266794 0 0)
(0.272299 0 0)
(0.277821 0 0)
(0.283358 0 0)
(0.288909 0 0)
(0.294473 0 0)
(0.30005 0 0)
(0.305639 0 0)
(0.31124 0 0)
(0.316851 0 0)
(0.322472 0 0)
(0.328102 0 0)
(0.333742 0 0)
(0.33939 0 0)
(0.345046 0 0)
(0.35071 0 0)
(0.356381 0 0)
(0.362059 0 0)
(0.367744 0 0)
(0.373434 0 0)
(0.37913 0 0)
(0.384832 0 0)
(0.390539 0 0)
(0.396251 0 0)
(0.401967 0 0)
(0.407688 0 0)
(0.413413 0 0)
(0.419141 0 0)
(0.424874 0 0)
(0.430609 0 0)
(0.436348 0 0)
(0.44209 0 0)
(0.447835 0 0)
(0.453582 0 0)
(0.459332 0 0)
(0.465084 0 0)
(0.470838 0 0)
(0.476594 0 0)
(0.482352 0 0)
(0.488111 0 0)
(0.493872 0 0)
(0.499634 0 0)
(0.505398 0 0)
(0.511162 0 0)
(0.516928 0 0)
(0.522694 0 0)
(0.528461 0 0)
(0.534228 0 0)
(0.539996 0 0)
(0.545764 0 0)
(0.551533 0 0)
(0.557301 0 0)
(0.56307 0 0)
(0.568838 0 0)
(0.574606 0 0)
(0.580374 0 0)
(0.586141 0 0)
(0.591908 0 0)
(0.597674 0 0)
(0.603439 0 0)
(0.609204 0 0)
(0.614967 0 0)
(0.62073 0 0)
(0.626491 0 0)
(0.632251 0 0)
(0.63801 0 0)
(0.643767 0 0)
(0.649523 0 0)
(0.655278 0 0)
(0.661031 0 0)
(0.666782 0 0)
(0.672531 0 0)
(0.678278 0 0)
(0.684023 0 0)
(0.689767 0 0)
(0.695508 0 0)
(0.701247 0 0)
(0.706983 0 0)
(0.712717 0 0)
(0.718449 0 0)
(0.724178 0 0)
(0.729905 0 0)
(0.735629 0 0)
(0.74135 0 0)
(0.747069 0 0)
(0.752784 0 0)
(0.758497 0 0)
(0.764207 0 0)
(0.769913 0 0)
(0.775617 0 0)
(0.781317 0 0)
(0.787014 0 0)
(0.792707 0 0)
(0.798398 0 0)
(0.804084 0 0)
(0.809768 0 0)
(0.815447 0 0)
(0.821123 0 0)
(0.826796 0 0)
(0.832464 0 0)
(0.838129 0 0)
(0.84379 0 0)
(0.849447 0 0)
(0.855099 0 0)
(0.860748 0 0)
(0.866393 0 0)
(0.872034 0 0)
(0.87767 0 0)
(0.883302 0 0)
(0.88893 0 0)
(0.894554 0 0)
(0.900173 0 0)
(0.905788 0 0)
(0.911398 0 0)
(0.917003 0 0)
(0.922604 0 0)
(0.928201 0 0)
(0.933792 0 0)
(0.939379 0 0)
(0.944961 0 0)
(0.950539 0 0)
(0.956111 0 0)
(0.961679 0 0)
(0.967241 0 0)
(0.972799 0 0)
(0.978351 0 0)
(0.983899 0 0)
(0.989441 0 0)
(0.994978 0 0)
(1.00051 0 0)
(1.00604 0 0)
(1.01156 0 0)
(1.01707 0 0)
(1.02258 0 0)
(1.02809 0 0)
(1.03359 0 0)
(1.03908 0 0)
(1.04457 0 0)
(1.05006 0 0)
(1.05553 0 0)
(1.061 0 0)
(1.06647 0 0)
(1.07193 0 0)
(1.07739 0 0)
(1.08283 0 0)
(1.08828 0 0)
(1.09372 0 0)
(1.09915 0 0)
(1.10457 0 0)
(1.10999 0 0)
(1.1154 0 0)
(1.12081 0 0)
(1.12621 0 0)
(1.13161 0 0)
(1.137 0 0)
(1.14238 0 0)
(1.14776 0 0)
(1.15313 0 0)
(1.15849 0 0)
(1.16385 0 0)
(1.1692 0 0)
(1.17454 0 0)
(1.17988 0 0)
(1.18522 0 0)
(1.19054 0 0)
(1.19586 0 0)
(1.20117 0 0)
(1.20648 0 0)
(1.21178 0 0)
(1.21707 0 0)
(1.22235 0 0)
(1.22763 0 0)
(1.23291 0 0)
(1.23817 0 0)
(1.24343 0 0)
(1.24868 0 0)
(1.25392 0 0)
(1.25916 0 0)
(1.26439 0 0)
(1.26962 0 0)
(1.27483 0 0)
(1.28004 0 0)
(1.28524 0 0)
(1.29044 0 0)
(1.29562 0 0)
(1.3008 0 0)
(1.30598 0 0)
(1.31114 0 0)
(1.3163 0 0)
(1.32145 0 0)
(1.32659 0 0)
(1.33172 0 0)
(1.33685 0 0)
(1.34197 0 0)
(1.34708 0 0)
(1.35218 0 0)
(1.35728 0 0)
(1.36237 0 0)
(1.36745 0 0)
(1.37252 0 0)
(1.37758 0 0)
(1.38264 0 0)
(1.38768 0 0)
(1.39272 0 0)
(1.39775 0 0)
(1.40277 0 0)
(1.40779 0 0)
(1.41279 0 0)
(1.41779 0 0)
(1.42277 0 0)
(1.42775 0 0)
(1.43272 0 0)
(1.43768 0 0)
(1.44264 0 0)
(1.44758 0 0)
(1.45251 0 0)
(1.45743 0 0)
(1.46235 0 0)
(1.46725 0 0)
(1.47215 0 0)
(1.47704 0 0)
(1.48191 0 0)
(1.48678 0 0)
(1.49164 0 0)
(1.49648 0 0)
(1.50132 0 0)
(1.50615 0 0)
(1.51096 0 0)
(1.51577 0 0)
(1.52057 0 0)
(1.52535 0 0)
(1.53013 0 0)
(1.53489 0 0)
(1.53964 0 0)
(1.54438 0 0)
(1.54911 0 0)
(1.55383 0 0)
(1.55854 0 0)
(1.56324 0 0)
(1.56792 0 0)
(1.57259 0 0)
(1.57725 0 0)
(1.5819 0 0)
(1.58654 0 0)
(1.59116 0 0)
(1.59578 0 0)
(1.60037 0 0)
(1.60496 0 0)
(1.60953 0 0)
(1.61409 0 0)
(1.61864 0 0)
(1.62317 0 0)
(1.62769 0 0)
(1.6322 0 0)
(1.63669 0 0)
(1.64117 0 0)
(1.64563 0 0)
(1.65008 0 0)
(1.65451 0 0)
(1.65893 0 0)
(1.66333 0 0)
(1.66772 0 0)
(1.67209 0 0)
(1.67645 0 0)
(1.68079 0 0)
(1.68511 0 0)
(1.68942 0 0)
(1.69371 0 0)
(1.69799 0 0)
(1.70224 0 0)
(1.70648 0 0)
(1.7107 0 0)
(1.71491 0 0)
(1.71909 0 0)
(1.72326 0 0)
(1.72741 0 0)
(1.73153 0 0)
(1.73564 0 0)
(1.73973 0 0)
(1.7438 0 0)
(1.74785 0 0)
(1.75188 0 0)
(1.75589 0 0)
(1.75988 0 0)
(1.76384 0 0)
(1.76778 0 0)
(1.77171 0 0)
(1.7756 0 0)
(1.77948 0 0)
(1.78333 0 0)
(1.78716 0 0)
(1.79097 0 0)
(1.79475 0 0)
(1.7985 0 0)
(1.80224 0 0)
(1.80594 0 0)
(1.80962 0 0)
(1.81328 0 0)
(1.8169 0 0)
(1.8205 0 0)
(1.82408 0 0)
(1.82762 0 0)
(1.83114 0 0)
(1.83463 0 0)
(1.83809 0 0)
(1.84152 0 0)
(1.84492 0 0)
(1.84829 0 0)
(1.85163 0 0)
(1.85494 0 0)
(1.85821 0 0)
(1.86146 0 0)
(1.86467 0 0)
(1.86785 0 0)
(1.871 0 0)
(1.87411 0 0)
(1.87719 0 0)
(1.88023 0 0)
(1.88324 0 0)
(1.88621 0 0)
(1.88915 0 0)
(1.89205 0 0)
(1.89492 0 0)
(1.89774 0 0)
(1.90053 0 0)
(1.90329 0 0)
(1.906 0 0)
(1.90868 0 0)
(1.91131 0 0)
(1.91391 0 0)
(1.91647 0 0)
(1.91898 0 0)
(1.92146 0 0)
(1.92389 0 0)
(1.92629 0 0)
(1.92864 0 0)
(1.93095 0 0)
(1.93322 0 0)
(1.93545 0 0)
(1.93763 0 0)
(1.93978 0 0)
(1.94188 0 0)
(1.94393 0 0)
(1.94595 0 0)
(1.94792 0 0)
(1.94984 0 0)
(1.95173 0 0)
(1.95357 0 0)
(1.95536 0 0)
(1.95712 0 0)
(1.95883 0 0)
(1.96049 0 0)
(1.96212 0 0)
(1.9637 0 0)
(1.96523 0 0)
(1.96673 0 0)
(1.96818 0 0)
(1.96959 0 0)
(1.97096 0 0)
(1.97228 0 0)
(1.97357 0 0)
(1.97481 0 0)
(1.97601 0 0)
(1.97717 0 0)
(1.9783 0 0)
(1.97938 0 0)
(1.98043 0 0)
(1.98143 0 0)
(1.9824 0 0)
(1.98333 0 0)
(1.98423 0 0)
(1.98509 0 0)
(1.98591 0 0)
(1.98671 0 0)
(1.98746 0 0)
(1.98819 0 0)
(1.98888 0 0)
(1.98954 0 0)
(1.99017 0 0)
(1.99077 0 0)
(1.99135 0 0)
(1.99189 0 0)
(1.99241 0 0)
(1.9929 0 0)
(1.99336 0 0)
(1.99381 0 0)
(1.99422 0 0)
(1.99462 0 0)
(1.99499 0 0)
(1.99534 0 0)
(1.99567 0 0)
(1.99599 0 0)
(1.99628 0 0)
(1.99655 0 0)
(1.99681 0 0)
(1.99705 0 0)
(1.99728 0 0)
(1.99749 0 0)
(1.99769 0 0)
(1.99787 0 0)
(1.99804 0 0)
(1.9982 0 0)
(1.99835 0 0)
(1.99849 0 0)
(1.99862 0 0)
(1.99874 0 0)
(1.99885 0 0)
(1.99895 0 0)
(1.99904 0 0)
(1.99913 0 0)
(1.99921 0 0)
(1.99928 0 0)
(1.99935 0 0)
(1.99941 0 0)
(1.99946 0 0)
(1.99951 0 0)
(1.99956 0 0)
(1.9996 0 0)
(1.99964 0 0)
(1.99968 0 0)
(1.99971 0 0)
(1.99974 0 0)
(1.99977 0 0)
(1.99979 0 0)
(1.99981 0 0)
(1.99983 0 0)
(1.99985 0 0)
(1.99987 0 0)
(1.99988 0 0)
(1.99989 0 0)
(1.99991 0 0)
(1.99992 0 0)
(1.99993 0 0)
(1.99993 0 0)
(1.99994 0 0)
(1.99995 0 0)
(1.99996 0 0)
(1.99996 0 0)
(1.99997 0 0)
(1.99997 0 0)
(1.99997 0 0)
(1.99998 0 0)
(1.99998 0 0)
(1.99998 0 0)
(1.99998 0 0)
(1.99999 0 0)
(1.99999 0 0)
(1.99999 0 0)
(1.99999 0 0)
(1.99999 0 0)
(1.99999 0 0)
(1.99999 0 0)
(1.99999 0 0)
(2 0 0)
(2 0 0)
(2 0 0)
(2 0 0)
(2 0 0)
(2 0 0)
(2 0 0)
(2 0 0)
(2 0 0)
(2 0 0)
(2 0 0)
(2 0 0)
(2 0 0)
(2 0 0)
(2 0 0)
(2 0 0)
(2 0 0)
(2 0 0)
(2 0 0)
(2 0 0)
(2 0 0)
(2 0 0)
(2 0 0)
(2 0 0)
(2 0 0)
(2 0 0)
(2 0 0)
(2 0 0)
(2 0 0)
(2 0 0)
(2 0 0)
(2 0 0)
(2 0 0)
(2 0 0)
(2 0 0)
(2 0 0)
(2 0 0)
(2 0 0)
(2 0 0)
(2 0 0)
(2 0 0)
(2 0 0)
(2 0 0)
(2 0 0)
(2 0 0)
(2 0 0)
(2 0 0)
(2 0 0)
(2 0 0)
(2 0 0)
(2 0 0)
(2 0 0)
(2 0 0)
(2 0 0)
(2 0 0)
(2 0 0)
(2 0 0)
(2 0 0)
(2 0 0)
(2 0 0)
(2 0 0)
(2 0 0)
(2 0 0)
(2 0 0)
(2 0 0)
(2 0 0)
(2 0 0)
(2 0 0)
(2 0 0)
(2 0 0)
(2 0 0)
(2 0 0)
(2 0 0)
(2 0 0)
(2 0 0)
(2 0 0)
(2 0 0)
(2 0 0)
(2 0 0)
(2 0 0)
(2 0 0)
(2 0 0)
(2 0 0)
(2 0 0)
(2 0 0)
(2 0 0)
(2 0 0)
(2 0 0)
(2 0 0)
(2 0 0)
(2 0 0)
(2 0 0)
(2 0 0)
(2 0 0)
(2 0 0)
(2 0 0)
(2 0 0)
(2 0 0)
(2 0 0)
(2 0 0)
(2 0 0)
(2 0 0)
(2 0 0)
(2 0 0)
(2 0 0)
(2 0 0)
(2 0 0)
(2 0 0)
(2 0 0)
(2 0 0)
(2 0 0)
(2 0 0)
(2 0 0)
(2 0 0)
(2 0 0)
(2 0 0)
(2 0 0)
(2 0 0)
(2 0 0)
(2 0 0)
(2 0 0)
(2 0 0)
(2 0 0)
(2 0 0)
(2 0 0)
(2 0 0)
(2 0 0)
(2 0 0)
(2 0 0)
(2 0 0)
(2 0 0)
(2 0 0)
(2 0 0)
(2 0 0)
(2 0 0)
(2 0 0)
(2 0 0)
(2 0 0)
(2 0 0)
(2 0 0)
(2 0 0)
(2 0 0)
(2 0 0)
(2 0 0)
(2 0 0)
(2 0 0)
(2 0 0)
(2 0 0)
(2 0 0)
(2 0 0)
(2 0 0)
(2 0 0)
(2 0 0)
(2 0 0)
(2 0 0)
(2 0 0)
(2 0 0)
(2 0 0)
(2 0 0)
(2 0 0)
(2 0 0)
(2 0 0)
(2 0 0)
(2 0 0)
(2 0 0)
(2 0 0)
(2 0 0)
(2 0 0)
(2 0 0)
(2 0 0)
(2 0 0)
(2 0 0)
(2 0 0)
(2 0 0)
(2 0 0)
(2 0 0)
(2 0 0)
(2 0 0)
(2 0 0)
(2 0 0)
(2 0 0)
(2 0 0)
(2 0 0)
(2 0 0)
(2 0 0)
(2 0 0)
(2 0 0)
(2 0 0)
(2 0 0)
(2 0 0)
(2 0 0)
(2 0 0)
(2 0 0)
(2 0 0)
(2 0 0)
(2 0 0)
(2 0 0)
(2 0 0)
(2 0 0)
(2 0 0)
(2 0 0)
(2 0 0)
(2 0 0)
(2 0 0)
(2 0 0)
(2 0 0)
(2 0 0)
(2 0 0)
(2 0 0)
(2 0 0)
(2 0 0)
(2 0 0)
(2 0 0)
(2 0 0)
(2 0 0)
(2 0 0)
(2 0 0)
(2 0 0)
(2 0 0)
(2 0 0)
(2 0 0)
(2 0 0)
(2 0 0)
(2 0 0)
(2 0 0)
(2 0 0)
(2 0 0)
(2 0 0)
(2 0 0)
(2 0 0)
(2 0 0)
(2 0 0)
(2 0 0)
(2 0 0)
(2 0 0)
(2 0 0)
(2 0 0)
(2 0 0)
(2 0 0)
(2 0 0)
(2 0 0)
(2 0 0)
(2 0 0)
(2 0 0)
(2 0 0)
(2 0 0)
(2 0 0)
(2 0 0)
(2 0 0)
(2 0 0)
(2 0 0)
(2 0 0)
(2 0 0)
(2 0 0)
(2 0 0)
(2 0 0)
(2 0 0)
(2 0 0)
(2 0 0)
(2 0 0)
(2 0 0)
(2 0 0)
(2 0 0)
(2 0 0)
(2 0 0)
(2 0 0)
(2 0 0)
(2 0 0)
(2 0 0)
(2 0 0)
(2 0 0)
(2 0 0)
(2 0 0)
(2 0 0)
(2 0 0)
(2 0 0)
(2 0 0)
(2 0 0)
(2 0 0)
(2 0 0)
(2 0 0)
(2 0 0)
(2 0 0)
(2 0 0)
(2 0 0)
(2 0 0)
(2 0 0)
(2 0 0)
(2 0 0)
(2 0 0)
(2 0 0)
(2 0 0)
(2 0 0)
(2 0 0)
(2 0 0)
(2 0 0)
(2 0 0)
(2 0 0)
(2 0 0)
(2 0 0)
(2 0 0)
(2 0 0)
(2 0 0)
(2 0 0)
(2 0 0)
(2 0 0)
(2 0 0)
(2 0 0)
(2 0 0)
(2 0 0)
(2 0 0)
(2 0 0)
(2 0 0)
(2 0 0)
(2 0 0)
(2 0 0)
(2 0 0)
(2 0 0)
(2 0 0)
(2 0 0)
(2 0 0)
(2 0 0)
(2 0 0)
(2 0 0)
(2 0 0)
(2 0 0)
(2 0 0)
(2 0 0)
(2 0 0)
(2 0 0)
(2 0 0)
(2 0 0)
(2 0 0)
(2 0 0)
(2 0 0)
(2 0 0)
(2 0 0)
(2 0 0)
(2 0 0)
(2 0 0)
(2 0 0)
(2 0 0)
(2 0 0)
(2 0 0)
(2 0 0)
(2 0 0)
(2 0 0)
(2 0 0)
(2 0 0)
(2 0 0)
(2 0 0)
(2 0 0)
(2 0 0)
(2 0 0)
(2 0 0)
(2 0 0)
(2 0 0)
(2 0 0)
(2 0 0)
(2 0 0)
(2 0 0)
(2 0 0)
(2 0 0)
(2 0 0)
(2 0 0)
(2 0 0)
(2 0 0)
(2 0 0)
(2 0 0)
(2 0 0)
(2 0 0)
(2 0 0)
(2 0 0)
(2 0 0)