/*--------------------------------*- C++ -*----------------------------------*\
| =========                 |                                                 |
| \\      /  F ield         | OpenFOAM: The Open Source CFD Toolbox           |
|  \\    /   O peration     | Version:  4.1                                   |
|   \\  /    A nd           | Web:      www.OpenFOAM.org                      |
|    \\/     M anipulation  |                                                 |
\*---------------------------------------------------------------------------*/
FoamFile
{
    version     2.0;
    format      ascii;
    class       volVectorField;
    location    "0.138";
    object      U;
}
// * * * * * * * * * * * * * * * * * * * * * * * * * * * * * * * * * * * * * //

dimensions      [0 1 -1 0 0 0 0];

internalField   nonuniform List<vector> 
100
(
(-0.00155315 0.000865338 0)
(-0.00447238 0.00114981 0)
(-0.0120537 0.00143219 0)
(-0.0160901 0.000554841 0)
(-0.020459 0.000254468 0)
(-0.0215075 -0.00115584 0)
(-0.0195667 -0.00177835 0)
(-0.0157289 -0.0032528 0)
(-0.00666064 -0.00318265 0)
(-0.00245455 -0.00265833 0)
(-0.00304333 0.0052159 0)
(-0.0107553 0.00927841 0)
(-0.025099 0.0104919 0)
(-0.0334854 0.00762482 0)
(-0.041221 0.00557859 0)
(-0.0430077 -3.25737e-05 0)
(-0.039303 -0.00363169 0)
(-0.0313627 -0.00993049 0)
(-0.0146912 -0.00994234 0)
(-0.00424395 -0.00643823 0)
(-0.00382755 0.0146605 0)
(-0.0139898 0.0229814 0)
(-0.0316387 0.024405 0)
(-0.0423661 0.0162258 0)
(-0.0524047 0.0100794 0)
(-0.0553785 -0.00363772 0)
(-0.0520826 -0.0132382 0)
(-0.0425999 -0.0284613 0)
(-0.0217333 -0.0304201 0)
(-0.00636687 -0.0218758 0)
(-0.00605446 0.0228712 0)
(-0.0195475 0.0368146 0)
(-0.0419783 0.0390858 0)
(-0.0559905 0.0280735 0)
(-0.0690211 0.0191539 0)
(-0.0744324 -0.00053899 0)
(-0.0726906 -0.0156577 0)
(-0.0623195 -0.0402633 0)
(-0.0356187 -0.0455237 0)
(-0.0109321 -0.0340351 0)
(-0.0071303 0.0404884 0)
(-0.0227355 0.0585679 0)
(-0.0485583 0.0613698 0)
(-0.0654551 0.0425171 0)
(-0.0825664 0.0289763 0)
(-0.0920684 -0.000998541 0)
(-0.0953839 -0.0252099 0)
(-0.0870238 -0.0668355 0)
(-0.0564765 -0.0823713 0)
(-0.0182292 -0.0694339 0)
(-0.0139995 0.0521631 0)
(-0.0361758 0.0775741 0)
(-0.0679503 0.081989 0)
(-0.0894991 0.061455 0)
(-0.110066 0.0466221 0)
(-0.124476 0.0119831 0)
(-0.134448 -0.0193008 0)
(-0.129339 -0.0789587 0)
(-0.0949432 -0.112868 0)
(-0.0327061 -0.10773 0)
(-0.0155434 0.0915765 0)
(-0.0386811 0.111764 0)
(-0.071471 0.115923 0)
(-0.0929455 0.0832012 0)
(-0.114631 0.064769 0)
(-0.129708 0.0213901 0)
(-0.147275 -0.0200679 0)
(-0.147292 -0.10893 0)
(-0.122268 -0.180332 0)
(-0.046303 -0.200477 0)
(-0.0402153 0.10462 0)
(-0.0729126 0.131998 0)
(-0.0885694 0.136555 0)
(-0.0972265 0.103467 0)
(-0.101316 0.0849159 0)
(-0.102495 0.0439839 0)
(-0.118292 0.00102889 0)
(-0.11708 -0.103269 0)
(-0.117961 -0.209915 0)
(-0.0519117 -0.274476 0)
(-0.0361131 0.207711 0)
(-0.0265243 0.15828 0)
(0.00359443 0.143624 0)
(0.0399203 0.0937285 0)
(0.0669731 0.0720398 0)
(0.103439 0.0353119 0)
(0.105541 -0.00375468 0)
(0.119158 -0.112707 0)
(0.0534809 -0.245496 0)
(0.0135115 -0.378614 0)
(0.14793 0.161563 0)
(0.236955 0.0896342 0)
(0.383971 0.0720179 0)
(0.45744 0.0395062 0)
(0.51333 0.0249218 0)
(0.556789 0.00599167 0)
(0.552819 -0.00781109 0)
(0.548597 -0.0456417 0)
(0.393301 -0.0900603 0)
(0.215586 -0.19347 0)
)
;

boundaryField
{
    movingWall
    {
        type            fixedValue;
        value           uniform (1 0 0);
    }
    fixedWalls
    {
        type            noSlip;
    }
    frontAndBack
    {
        type            empty;
    }
}


// ************************************************************************* //
