/*--------------------------------*- C++ -*----------------------------------*\
| =========                 |                                                 |
| \\      /  F ield         | OpenFOAM: The Open Source CFD Toolbox           |
|  \\    /   O peration     | Version:  4.1                                   |
|   \\  /    A nd           | Web:      www.OpenFOAM.org                      |
|    \\/     M anipulation  |                                                 |
\*---------------------------------------------------------------------------*/
FoamFile
{
    version     2.0;
    format      ascii;
    class       volVectorField;
    location    "0.07";
    object      U;
}
// * * * * * * * * * * * * * * * * * * * * * * * * * * * * * * * * * * * * * //

dimensions      [0 1 -1 0 0 0 0];

internalField   nonuniform List<vector> 
100
(
(-0.00208492 0.00169566 0)
(-0.00532268 0.0017728 0)
(-0.0117531 0.00178452 0)
(-0.0146683 0.000716904 0)
(-0.0176148 0.000286212 0)
(-0.0179164 -0.00111281 0)
(-0.0159994 -0.00164696 0)
(-0.0131909 -0.00295947 0)
(-0.00632255 -0.00304872 0)
(-0.00266029 -0.00293698 0)
(-0.00322555 0.00575419 0)
(-0.0096483 0.00779892 0)
(-0.0201309 0.00784992 0)
(-0.0252895 0.00489541 0)
(-0.0298752 0.00336471 0)
(-0.0303312 -0.000801363 0)
(-0.0272493 -0.00269404 0)
(-0.0222526 -0.00695425 0)
(-0.0111754 -0.00727901 0)
(-0.00392652 -0.0060146 0)
(-0.00381125 0.0146126 0)
(-0.0113808 0.0184926 0)
(-0.0233943 0.01772 0)
(-0.0293928 0.010031 0)
(-0.0348628 0.00563638 0)
(-0.03558 -0.00432846 0)
(-0.032567 -0.00956557 0)
(-0.0269184 -0.0196662 0)
(-0.0141856 -0.0215001 0)
(-0.00523667 -0.0183931 0)
(-0.00595132 0.020774 0)
(-0.016167 0.0270857 0)
(-0.0316727 0.0260961 0)
(-0.0395456 0.016059 0)
(-0.0463518 0.0101404 0)
(-0.0476908 -0.00324727 0)
(-0.0446499 -0.010538 0)
(-0.0377021 -0.0252211 0)
(-0.0213292 -0.0281545 0)
(-0.00825491 -0.024871 0)
(-0.00703085 0.0370457 0)
(-0.0189574 0.0439566 0)
(-0.036761 0.0417011 0)
(-0.0459466 0.0239887 0)
(-0.0543605 0.0142266 0)
(-0.0566329 -0.00713305 0)
(-0.0550685 -0.0194873 0)
(-0.048051 -0.0443803 0)
(-0.0298687 -0.0514782 0)
(-0.0124198 -0.0490848 0)
(-0.0138178 0.0461579 0)
(-0.0322483 0.0561397 0)
(-0.0550339 0.0533156 0)
(-0.0674484 0.0331254 0)
(-0.0771646 0.0217851 0)
(-0.0811462 -0.0026915 0)
(-0.0817915 -0.0175652 0)
(-0.0742408 -0.0500041 0)
(-0.0521359 -0.0619634 0)
(-0.0225115 -0.0658593 0)
(-0.0157636 0.0841613 0)
(-0.0373984 0.0845971 0)
(-0.062221 0.078256 0)
(-0.0757113 0.0447797 0)
(-0.0867797 0.0287393 0)
(-0.0915659 -0.00455553 0)
(-0.0970324 -0.0262792 0)
(-0.0920995 -0.0768931 0)
(-0.0744033 -0.104332 0)
(-0.0338658 -0.126721 0)
(-0.0400024 0.0974034 0)
(-0.0742011 0.101091 0)
(-0.0888022 0.0918896 0)
(-0.0987603 0.0567026 0)
(-0.10262 0.0392392 0)
(-0.105636 0.00722999 0)
(-0.117377 -0.0141924 0)
(-0.112836 -0.0717584 0)
(-0.10651 -0.116102 0)
(-0.0483807 -0.171425 0)
(-0.0348774 0.20139 0)
(-0.0357735 0.131682 0)
(-0.0215776 0.105949 0)
(-0.00608634 0.0561866 0)
(0.00378237 0.0371449 0)
(0.0192492 0.00671953 0)
(0.0110603 -0.0183998 0)
(0.021534 -0.0930651 0)
(-0.0131452 -0.170178 0)
(-0.00220683 -0.290213 0)
(0.149857 0.161926 0)
(0.229507 0.0852384 0)
(0.356574 0.0638211 0)
(0.405438 0.0306468 0)
(0.44034 0.0171078 0)
(0.462716 -0.000101783 0)
(0.444956 -0.0106856 0)
(0.436791 -0.0443377 0)
(0.304383 -0.0805099 0)
(0.189818 -0.174169 0)
)
;

boundaryField
{
    movingWall
    {
        type            fixedValue;
        value           uniform (1 0 0);
    }
    fixedWalls
    {
        type            noSlip;
    }
    frontAndBack
    {
        type            empty;
    }
}


// ************************************************************************* //
