/*--------------------------------*- C++ -*----------------------------------*\
| =========                 |                                                 |
| \\      /  F ield         | OpenFOAM: The Open Source CFD Toolbox           |
|  \\    /   O peration     | Version:  4.1                                   |
|   \\  /    A nd           | Web:      www.OpenFOAM.org                      |
|    \\/     M anipulation  |                                                 |
\*---------------------------------------------------------------------------*/
FoamFile
{
    version     2.0;
    format      ascii;
    class       volScalarField;
    location    "0.004";
    object      p;
}
// * * * * * * * * * * * * * * * * * * * * * * * * * * * * * * * * * * * * * //

dimensions      [1 -1 -2 0 0 0 0];

internalField   nonuniform List<scalar> 
441
(
100000
99999.9
99999.7
99999.9
99999.9
99999.6
100000
100000
100000
100001
100001
100001
100001
100001
100001
100001
100001
100001
100001
100001
100001
100000
100000
100000
100000
100000
100000
100000
100000
100000
100000
100000
100000
100000
100000
100000
100001
100000
100001
100000
100001
100000
100000
99999.9
100000
99999.9
100000
99999.9
100000
100000
100000
100001
100001
100001
100001
100001
100001
100001
100001
100001
100001
100001
100001
100000
100000
100000
100000
100000
100000
100000
100000
100000
100000
100000
100000
100000
100001
100001
100001
100001
100001
100001
100001
100001
100000
99999.6
99999.8
99999.7
99999.8
99999.8
100000
100000
100000
100000
100000
100001
100001
100001
100001
100001
100001
100001
100001
100001
100001
99998.9
99999.6
99999.4
99999.6
99999.6
99999.8
99999.9
100000
100000
100000
100000
100001
100001
100001
100001
100001
100001
100001
100001
100001
100001
99998.6
99998.9
99999
99999.1
99999.2
99999.4
99999.6
99999.8
100000
100000
100000
100001
100001
100001
100001
100001
100001
100002
100001
100002
100000
99998.7
99998.7
99998.7
99998.9
99999
99999.2
99999.4
99999.6
99999.8
100000
100000
100001
100001
100001
100001
100001
100001
100002
100001
100002
100001
99997.9
99997.9
99998
99998.2
99998.4
99998.7
99998.9
99999.3
99999.6
100000
100000
100001
100001
100001
100002
100002
100002
100002
100002
100003
100002
99997.5
99997.5
99997.6
99997.8
99998
99998.3
99998.6
99999
99999.4
99999.9
100000
100001
100001
100002
100002
100002
100002
100003
100003
100003
100002
99996.4
99996.4
99996.5
99996.8
99997
99997.5
99997.9
99998.5
99999
99999.7
100000
100001
100002
100002
100003
100003
100003
100004
100004
100004
100004
99995.9
99995.8
99995.9
99996.3
99996.5
99997
99997.4
99998.1
99998.7
99999.4
100000
100001
100002
100002
100003
100004
100004
100004
100004
100005
100004
99994.1
99994.2
99994.3
99994.8
99995.1
99995.9
99996.4
99997.3
99998.1
99999.1
100000
100001
100002
100003
100004
100005
100006
100006
100006
100007
100004
99993.5
99993.5
99993.5
99994.1
99994.3
99995.2
99995.8
99996.8
99997.7
99998.7
99999.9
100001
100002
100003
100005
100005
100006
100007
100007
100007
100006
99990.6
99991
99990.9
99992
99992.3
99993.7
99994.4
99995.8
99996.9
99998.3
99999.7
100001
100003
100004
100006
100007
100009
100009
100010
100010
100007
99990.1
99990.4
99990.1
99991.3
99991.5
99992.9
99993.6
99995.1
99996.3
99997.8
99999.4
100001
100003
100004
100006
100007
100009
100009
100011
100010
100006
99984.8
99986.4
99985.8
99988.3
99988.6
99990.9
99991.9
99993.9
99995.4
99997.2
99999.2
100001
100003
100004
100008
100009
100013
100012
100020
100014
100030
99984.7
99986.3
99985.2
99987.6
99987.7
99990.1
99991.1
99993.3
99994.8
99996.7
99998.7
100000
100003
100004
100007
100008
100013
100013
100019
100019
100028
99972.4
99979.7
99978
99983.7
99984
99988
99989.3
99992.2
99994
99996.2
99998.5
100000
100003
100004
100008
100009
100016
100016
100027
100027
100042
99972.6
99980.7
99978.2
99983.3
99983.6
99987.4
99988.9
99991.8
99993.7
99995.9
99998.1
99999.7
100003
100004
100007
100008
100014
100014
100025
100027
100045
99930.1
99972.7
99971
99982.1
99982.2
99987.2
99988.6
99991.7
99993.7
99995.9
99998.2
99999.8
100003
100004
100008
100009
100017
100018
100038
100045
100100
)
;

boundaryField
{
    movingWall
    {
        type            zeroGradient;
    }
    fixedWalls
    {
        type            zeroGradient;
    }
    frontAndBack
    {
        type            empty;
    }
}


// ************************************************************************* //
