/*--------------------------------*- C++ -*----------------------------------*\
| =========                 |                                                 |
| \\      /  F ield         | OpenFOAM: The Open Source CFD Toolbox           |
|  \\    /   O peration     | Version:  4.1                                   |
|   \\  /    A nd           | Web:      www.OpenFOAM.org                      |
|    \\/     M anipulation  |                                                 |
\*---------------------------------------------------------------------------*/
FoamFile
{
    version     2.0;
    format      ascii;
    class       volVectorField;
    location    "0.126";
    object      U;
}
// * * * * * * * * * * * * * * * * * * * * * * * * * * * * * * * * * * * * * //

dimensions      [0 1 -1 0 0 0 0];

internalField   nonuniform List<vector> 
6400
(
(8.00955e-06 -7.97455e-06 0)
(3.02317e-05 -1.16147e-05 0)
(4.84393e-05 -8.06747e-06 0)
(5.64704e-05 1.2086e-06 0)
(5.01026e-05 1.42046e-05 0)
(2.68515e-05 2.93491e-05 0)
(-1.45075e-05 4.54978e-05 0)
(-7.42827e-05 6.18391e-05 0)
(-0.000152134 7.78031e-05 0)
(-0.000247267 9.29938e-05 0)
(-0.000358576 0.00010714 0)
(-0.000484742 0.00012006 0)
(-0.00062431 0.000131638 0)
(-0.000775741 0.000141803 0)
(-0.00093745 0.000150521 0)
(-0.00110784 0.000157781 0)
(-0.0012853 0.000163592 0)
(-0.00146827 0.000167977 0)
(-0.0016552 0.000170968 0)
(-0.00184459 0.000172605 0)
(-0.00203498 0.000172934 0)
(-0.00222497 0.000172007 0)
(-0.00241322 0.000169875 0)
(-0.00259845 0.000166595 0)
(-0.00277943 0.000162223 0)
(-0.002955 0.00015682 0)
(-0.00312406 0.000150443 0)
(-0.0032856 0.000143154 0)
(-0.00343863 0.000135012 0)
(-0.00358228 0.00012608 0)
(-0.0037157 0.000116418 0)
(-0.00383814 0.00010609 0)
(-0.0039489 9.51569e-05 0)
(-0.00404736 8.3683e-05 0)
(-0.00413295 7.17319e-05 0)
(-0.00420521 5.93683e-05 0)
(-0.0042637 4.66579e-05 0)
(-0.00430809 3.36671e-05 0)
(-0.00433811 2.04634e-05 0)
(-0.00435357 7.11548e-06 0)
(-0.00435434 -6.30688e-06 0)
(-0.00434039 -1.97327e-05 0)
(-0.00431175 -3.30899e-05 0)
(-0.00426853 -4.63052e-05 0)
(-0.00421093 -5.9304e-05 0)
(-0.00413923 -7.20111e-05 0)
(-0.00405378 -8.435e-05 0)
(-0.00395503 -9.62438e-05 0)
(-0.00384351 -0.000107615 0)
(-0.00371982 -0.000118386 0)
(-0.00358467 -0.000128478 0)
(-0.00343884 -0.000137814 0)
(-0.00328318 -0.000146319 0)
(-0.00311866 -0.000153915 0)
(-0.0029463 -0.000160529 0)
(-0.0027672 -0.000166089 0)
(-0.00258256 -0.000170526 0)
(-0.00239363 -0.000173774 0)
(-0.00220175 -0.000175772 0)
(-0.0020083 -0.000176461 0)
(-0.00181475 -0.00017579 0)
(-0.00162261 -0.000173714 0)
(-0.00143342 -0.000170197 0)
(-0.00124878 -0.000165209 0)
(-0.0010703 -0.000158736 0)
(-0.000899629 -0.000150773 0)
(-0.000738381 -0.000141337 0)
(-0.000588168 -0.000130462 0)
(-0.000450554 -0.000118212 0)
(-0.000327024 -0.000104689 0)
(-0.000218947 -9.00381e-05 0)
(-0.000127522 -7.4474e-05 0)
(-5.37031e-05 -5.82972e-05 0)
(1.89996e-06 -4.19301e-05 0)
(3.91556e-05 -2.59628e-05 0)
(5.85984e-05 -1.12168e-05 0)
(6.16811e-05 1.17205e-06 0)
(5.10932e-05 9.67238e-06 0)
(3.11935e-05 1.23783e-05 0)
(8.14665e-06 8.08004e-06 0)
(1.17785e-05 -3.01714e-05 0)
(4.54707e-05 -4.49883e-05 0)
(6.51523e-05 -2.68981e-05 0)
(5.65661e-05 1.37954e-05 0)
(9.68672e-06 6.8896e-05 0)
(-8.16022e-05 0.000132293 0)
(-0.000220507 0.000199536 0)
(-0.000408018 0.00026743 0)
(-0.000643488 0.000333706 0)
(-0.000925065 0.00039677 0)
(-0.00125003 0.000455517 0)
(-0.00161504 0.000509198 0)
(-0.00201634 0.000557324 0)
(-0.00244988 0.000599599 0)
(-0.00291145 0.000635866 0)
(-0.00339675 0.000666072 0)
(-0.00390143 0.000690244 0)
(-0.0044212 0.000708467 0)
(-0.00495181 0.000720868 0)
(-0.0054891 0.000727609 0)
(-0.00602903 0.000728876 0)
(-0.0065677 0.000724874 0)
(-0.00710133 0.000715822 0)
(-0.00762633 0.00070195 0)
(-0.00813925 0.000683495 0)
(-0.00863681 0.000660702 0)
(-0.00911592 0.000633817 0)
(-0.00957367 0.000603094 0)
(-0.0100073 0.000568785 0)
(-0.0104143 0.000531149 0)
(-0.0107923 0.000490444 0)
(-0.0111392 0.000446932 0)
(-0.0114529 0.000400877 0)
(-0.0117317 0.000352545 0)
(-0.0119741 0.000302206 0)
(-0.0121785 0.000250133 0)
(-0.012344 0.000196603 0)
(-0.0124694 0.000141895 0)
(-0.0125541 8.62949e-05 0)
(-0.0125975 3.00918e-05 0)
(-0.0125993 -2.64202e-05 0)
(-0.0125593 -8.29422e-05 0)
(-0.0124777 -0.00013917 0)
(-0.0123549 -0.000194796 0)
(-0.0121913 -0.000249507 0)
(-0.0119878 -0.000302985 0)
(-0.0117454 -0.000354911 0)
(-0.0114654 -0.00040496 0)
(-0.0111493 -0.000452808 0)
(-0.0107988 -0.000498128 0)
(-0.010416 -0.000540594 0)
(-0.0100029 -0.000579883 0)
(-0.0095622 -0.000615674 0)
(-0.00909643 -0.000647651 0)
(-0.00860853 -0.000675506 0)
(-0.00810162 -0.000698939 0)
(-0.00757904 -0.000717663 0)
(-0.00704433 -0.000731404 0)
(-0.00650119 -0.000739905 0)
(-0.00595354 -0.000742931 0)
(-0.00540541 -0.00074027 0)
(-0.004861 -0.000731737 0)
(-0.0043246 -0.000717184 0)
(-0.0038006 -0.0006965 0)
(-0.00329343 -0.000669623 0)
(-0.00280753 -0.00063655 0)
(-0.00234731 -0.000597349 0)
(-0.0019171 -0.000552177 0)
(-0.00152104 -0.000501307 0)
(-0.00116304 -0.000445159 0)
(-0.000846638 -0.000384349 0)
(-0.000574862 -0.000319752 0)
(-0.000350045 -0.000252591 0)
(-0.000173579 -0.000184567 0)
(-4.55975e-05 -0.000118028 0)
(3.54426e-05 -5.62028e-05 0)
(7.32924e-05 -3.50722e-06 0)
(7.45501e-05 3.41063e-05 0)
(4.95631e-05 4.88105e-05 0)
(1.26393e-05 3.10567e-05 0)
(8.4322e-06 -4.85553e-05 0)
(2.81687e-05 -6.47336e-05 0)
(2.10004e-05 -1.92413e-05 0)
(-3.14664e-05 6.83637e-05 0)
(-0.000142633 0.000183024 0)
(-0.00032093 0.000313435 0)
(-0.000570943 0.000451224 0)
(-0.000894216 0.000590258 0)
(-0.00128996 0.000726087 0)
(-0.0017556 0.000855516 0)
(-0.00228724 0.000976282 0)
(-0.00288 0.00108682 0)
(-0.00352832 0.00118606 0)
(-0.00422613 0.00127336 0)
(-0.00496704 0.00134832 0)
(-0.00574449 0.0014108 0)
(-0.00655183 0.00146079 0)
(-0.0073824 0.00149845 0)
(-0.00822962 0.00152399 0)
(-0.009087 0.00153773 0)
(-0.00994821 0.00154002 0)
(-0.0108071 0.00153129 0)
(-0.0116578 0.00151196 0)
(-0.0124946 0.00148251 0)
(-0.013312 0.00144342 0)
(-0.0141048 0.00139519 0)
(-0.0148682 0.00133835 0)
(-0.0155974 0.00127342 0)
(-0.0162883 0.00120092 0)
(-0.0169366 0.0011214 0)
(-0.0175387 0.0010354 0)
(-0.018091 0.000943474 0)
(-0.0185906 0.000846181 0)
(-0.0190345 0.000744084 0)
(-0.0194202 0.000637752 0)
(-0.0197456 0.000527764 0)
(-0.0200087 0.000414705 0)
(-0.0202081 0.000299171 0)
(-0.0203425 0.000181764 0)
(-0.0204111 6.30971e-05 0)
(-0.0204134 -5.62069e-05 0)
(-0.0203493 -0.000175516 0)
(-0.0202188 -0.000294187 0)
(-0.0200227 -0.000411569 0)
(-0.0197617 -0.000527002 0)
(-0.0194372 -0.000639816 0)
(-0.0190508 -0.000749338 0)
(-0.0186047 -0.000854886 0)
(-0.0181011 -0.000955778 0)
(-0.0175428 -0.00105133 0)
(-0.0169331 -0.00114086 0)
(-0.0162755 -0.00122368 0)
(-0.0155738 -0.00129914 0)
(-0.0148323 -0.00136657 0)
(-0.0140556 -0.00142533 0)
(-0.0132486 -0.0014748 0)
(-0.0124167 -0.00151438 0)
(-0.0115654 -0.00154352 0)
(-0.0107005 -0.00156168 0)
(-0.00982822 -0.0015684 0)
(-0.00895485 -0.00156324 0)
(-0.00808695 -0.00154584 0)
(-0.00723122 -0.0015159 0)
(-0.00639447 -0.00147324 0)
(-0.00558358 -0.00141774 0)
(-0.00480539 -0.00134944 0)
(-0.00406667 -0.00126852 0)
(-0.003374 -0.00117535 0)
(-0.00273366 -0.00107054 0)
(-0.00215152 -0.000954997 0)
(-0.00163282 -0.000830031 0)
(-0.00118197 -0.000697461 0)
(-0.000802332 -0.000559782 0)
(-0.000495798 -0.000420395 0)
(-0.000262427 -0.000283899 0)
(-9.98953e-05 -0.000156493 0)
(-2.84963e-06 -4.64865e-05 0)
(3.78196e-05 3.50898e-05 0)
(3.59908e-05 7.3776e-05 0)
(1.02265e-05 5.11257e-05 0)
(-5.75233e-07 -5.70974e-05 0)
(-1.14576e-05 -5.68627e-05 0)
(-6.47553e-05 3.2952e-05 0)
(-0.000180541 0.000184566 0)
(-0.000373754 0.000376361 0)
(-0.000653903 0.0005918 0)
(-0.00102621 0.000818376 0)
(-0.00149241 0.00104672 0)
(-0.00205147 0.00126989 0)
(-0.0027002 0.0014828 0)
(-0.00343375 0.00168173 0)
(-0.004246 0.00186408 0)
(-0.00512991 0.00202804 0)
(-0.00607774 0.00217242 0)
(-0.00708133 0.00229651 0)
(-0.0081322 0.00239997 0)
(-0.00922171 0.00248273 0)
(-0.0103412 0.00254496 0)
(-0.0114821 0.00258699 0)
(-0.0126357 0.00260927 0)
(-0.0137939 0.00261239 0)
(-0.0149485 0.00259697 0)
(-0.0160917 0.00256374 0)
(-0.0172158 0.00251346 0)
(-0.0183136 0.00244692 0)
(-0.0193783 0.00236496 0)
(-0.0204032 0.00226843 0)
(-0.0213822 0.00215822 0)
(-0.0223095 0.00203521 0)
(-0.0231796 0.00190031 0)
(-0.0239876 0.00175444 0)
(-0.0247288 0.00159853 0)
(-0.0253989 0.00143354 0)
(-0.0259943 0.0012604 0)
(-0.0265116 0.00108011 0)
(-0.0269478 0.000893622 0)
(-0.0273004 0.00070195 0)
(-0.0275675 0.000506098 0)
(-0.0277473 0.000307093 0)
(-0.0278389 0.000105976 0)
(-0.0278414 -9.61965e-05 0)
(-0.0277548 -0.00029835 0)
(-0.0275792 -0.000499395 0)
(-0.0273155 -0.000698228 0)
(-0.0269649 -0.00089373 0)
(-0.0265291 -0.00108477 0)
(-0.0260104 -0.00127021 0)
(-0.0254115 -0.0014489 0)
(-0.0247356 -0.00161969 0)
(-0.0239865 -0.00178142 0)
(-0.0231684 -0.00193296 0)
(-0.0222861 -0.00207315 0)
(-0.0213447 -0.00220089 0)
(-0.0203499 -0.00231507 0)
(-0.0193079 -0.00241463 0)
(-0.0182252 -0.00249852 0)
(-0.0171089 -0.00256578 0)
(-0.0159663 -0.00261546 0)
(-0.0148052 -0.00264672 0)
(-0.0136336 -0.00265876 0)
(-0.0124601 -0.00265091 0)
(-0.0112932 -0.0026226 0)
(-0.0101417 -0.00257336 0)
(-0.0090145 -0.00250292 0)
(-0.00792062 -0.00241117 0)
(-0.00686897 -0.0022982 0)
(-0.00586831 -0.00216438 0)
(-0.00492713 -0.00201041 0)
(-0.00405349 -0.00183736 0)
(-0.00325487 -0.00164682 0)
(-0.00253789 -0.00144099 0)
(-0.00190813 -0.00122289 0)
(-0.00136975 -0.000996582 0)
(-0.000925134 -0.000767483 0)
(-0.000574409 -0.000542775 0)
(-0.000314889 -0.000331933 0)
(-0.000140408 -0.000147386 0)
(-4.06009e-05 -5.31379e-06 0)
(1.18206e-07 7.34127e-05 0)
(2.16573e-06 6.23175e-05 0)
(-1.33051e-05 -5.16483e-05 0)
(-6.55241e-05 -1.14329e-05 0)
(-0.000177758 0.000143074 0)
(-0.000370312 0.00037743 0)
(-0.000658362 0.00066426 0)
(-0.00105149 0.000982166 0)
(-0.00155483 0.00131461 0)
(-0.00216987 0.00164895 0)
(-0.00289512 0.00197559 0)
(-0.0037267 0.00228737 0)
(-0.00465888 0.00257897 0)
(-0.00568444 0.00284654 0)
(-0.00679508 0.00308737 0)
(-0.00798166 0.00329961 0)
(-0.00923448 0.00348211 0)
(-0.0105434 0.00363426 0)
(-0.0118982 0.00375588 0)
(-0.0132884 0.00384711 0)
(-0.0147035 0.00390836 0)
(-0.0161334 0.00394024 0)
(-0.0175679 0.00394355 0)
(-0.0189971 0.0039192 0)
(-0.0204115 0.00386821 0)
(-0.0218019 0.00379168 0)
(-0.0231594 0.00369077 0)
(-0.0244755 0.00356672 0)
(-0.0257422 0.00342079 0)
(-0.0269519 0.00325428 0)
(-0.0280975 0.00306853 0)
(-0.0291724 0.00286488 0)
(-0.0301702 0.00264472 0)
(-0.0310855 0.00240946 0)
(-0.0319129 0.00216051 0)
(-0.0326479 0.00189931 0)
(-0.0332863 0.00162733 0)
(-0.0338246 0.00134604 0)
(-0.0342595 0.00105696 0)
(-0.0345888 0.000761607 0)
(-0.0348103 0.000461528 0)
(-0.0349228 0.000158299 0)
(-0.0349254 -0.000146485 0)
(-0.0348179 -0.000451205 0)
(-0.0346006 -0.000754218 0)
(-0.0342745 -0.00105386 0)
(-0.0338412 -0.00134845 0)
(-0.0333028 -0.00163628 0)
(-0.032662 -0.00191565 0)
(-0.0319223 -0.00218483 0)
(-0.0310877 -0.00244209 0)
(-0.0301627 -0.00268571 0)
(-0.0291525 -0.00291397 0)
(-0.028063 -0.00312519 0)
(-0.0269005 -0.00331768 0)
(-0.025672 -0.00348982 0)
(-0.0243851 -0.00364002 0)
(-0.0230477 -0.00376676 0)
(-0.0216684 -0.00386857 0)
(-0.0202563 -0.00394411 0)
(-0.0188208 -0.00399212 0)
(-0.0173717 -0.00401148 0)
(-0.0159192 -0.00400119 0)
(-0.0144739 -0.00396045 0)
(-0.0130463 -0.00388866 0)
(-0.0116471 -0.00378544 0)
(-0.0102873 -0.00365071 0)
(-0.0089775 -0.00348469 0)
(-0.00772818 -0.00328801 0)
(-0.00654948 -0.00306178 0)
(-0.00545099 -0.00280768 0)
(-0.00444154 -0.00252812 0)
(-0.00352899 -0.00222639 0)
(-0.00271991 -0.0019069 0)
(-0.00201927 -0.00157548 0)
(-0.00143002 -0.00123977 0)
(-0.000952608 -0.000909678 0)
(-0.000584478 -0.00059804 0)
(-0.000319373 -0.000321326 0)
(-0.000146685 -0.000100548 0)
(-5.03993e-05 3.7737e-05 0)
(-9.67127e-06 6.04541e-05 0)
(-2.82916e-05 -2.96863e-05 0)
(-0.000128367 7.78948e-05 0)
(-0.000307652 0.000320035 0)
(-0.000585867 0.000657235 0)
(-0.000977555 0.00105736 0)
(-0.00149159 0.00149476 0)
(-0.00213244 0.00194917 0)
(-0.00290087 0.00240481 0)
(-0.00379466 0.00284946 0)
(-0.00480911 0.0032738 0)
(-0.00593755 0.00367083 0)
(-0.00717175 0.00403534 0)
(-0.00850224 0.00436359 0)
(-0.00991864 0.00465298 0)
(-0.0114099 0.00490185 0)
(-0.0129645 0.00510922 0)
(-0.0145706 0.00527475 0)
(-0.0162163 0.00539851 0)
(-0.0178897 0.00548098 0)
(-0.0195788 0.00552294 0)
(-0.0212721 0.00552538 0)
(-0.0229581 0.00548951 0)
(-0.0246257 0.00541668 0)
(-0.0262642 0.00530839 0)
(-0.0278634 0.00516622 0)
(-0.0294134 0.00499184 0)
(-0.0309048 0.00478698 0)
(-0.0323287 0.00455345 0)
(-0.0336769 0.00429307 0)
(-0.0349415 0.00400774 0)
(-0.0361154 0.00369937 0)
(-0.0371919 0.00336991 0)
(-0.038165 0.00302135 0)
(-0.0390292 0.0026557 0)
(-0.0397797 0.00227501 0)
(-0.0404123 0.00188134 0)
(-0.0409234 0.0014768 0)
(-0.0413102 0.00106354 0)
(-0.0415702 0.000643706 0)
(-0.041702 0.000219511 0)
(-0.0417046 -0.000206814 0)
(-0.0415778 -0.000633004 0)
(-0.0413219 -0.00105677 0)
(-0.0409381 -0.00147577 0)
(-0.0404283 -0.00188768 0)
(-0.0397949 -0.00229012 0)
(-0.0390413 -0.00268069 0)
(-0.0381713 -0.00305701 0)
(-0.0371897 -0.00341668 0)
(-0.0361019 -0.00375729 0)
(-0.0349139 -0.00407649 0)
(-0.0336324 -0.0043719 0)
(-0.0322651 -0.00464123 0)
(-0.0308198 -0.00488223 0)
(-0.0293055 -0.0050927 0)
(-0.0277315 -0.00527057 0)
(-0.0261077 -0.00541383 0)
(-0.0244446 -0.00552064 0)
(-0.0227532 -0.00558931 0)
(-0.0210449 -0.0056183 0)
(-0.0193313 -0.00560632 0)
(-0.0176247 -0.00555231 0)
(-0.0159373 -0.0054555 0)
(-0.0142814 -0.00531544 0)
(-0.0126695 -0.00513211 0)
(-0.0111139 -0.0049059 0)
(-0.00962648 -0.00463779 0)
(-0.00821888 -0.00432937 0)
(-0.006902 -0.00398305 0)
(-0.00568594 -0.00360217 0)
(-0.00457965 -0.00319124 0)
(-0.0035907 -0.00275619 0)
(-0.0027249 -0.00230475 0)
(-0.00198594 -0.00184684 0)
(-0.00137492 -0.00139514 0)
(-0.000889825 -0.000965705 0)
(-0.000524939 -0.000578787 0)
(-0.000270179 -0.000259685 0)
(-0.000109966 -3.9721e-05 0)
(-2.38356e-05 4.29466e-05 0)
(-4.45138e-05 1.01859e-05 0)
(-0.000196053 0.000214911 0)
(-0.000447137 0.000569467 0)
(-0.000816501 0.00103073 0)
(-0.0013175 0.00156284 0)
(-0.00195776 0.00213654 0)
(-0.00274057 0.00272832 0)
(-0.00366561 0.00331949 0)
(-0.00472964 0.00389535 0)
(-0.00592695 0.00444448 0)
(-0.00724985 0.00495815 0)
(-0.00868905 0.00542976 0)
(-0.010234 0.0058545 0)
(-0.0118731 0.00622893 0)
(-0.0135941 0.00655079 0)
(-0.0153842 0.00681873 0)
(-0.0172303 0.00703217 0)
(-0.0191191 0.0071911 0)
(-0.0210373 0.00729605 0)
(-0.0229716 0.00734791 0)
(-0.0249089 0.00734794 0)
(-0.0268366 0.00729763 0)
(-0.0287421 0.00719871 0)
(-0.0306135 0.00705307 0)
(-0.0324391 0.00686277 0)
(-0.0342078 0.00662995 0)
(-0.0359091 0.0063569 0)
(-0.0375331 0.00604595 0)
(-0.0390703 0.00569952 0)
(-0.0405119 0.00532008 0)
(-0.0418498 0.00491017 0)
(-0.0430764 0.00447236 0)
(-0.044185 0.00400927 0)
(-0.0451695 0.00352357 0)
(-0.0460242 0.00301796 0)
(-0.0467446 0.00249521 0)
(-0.0473265 0.00195809 0)
(-0.0477667 0.00140944 0)
(-0.0480626 0.000852131 0)
(-0.0482125 0.000289091 0)
(-0.0482151 -0.000276722 0)
(-0.0480704 -0.000842309 0)
(-0.0477787 -0.00140463 0)
(-0.0473414 -0.00196061 0)
(-0.0467606 -0.00250713 0)
(-0.0460392 -0.00304108 0)
(-0.0451807 -0.00355928 0)
(-0.0441898 -0.00405859 0)
(-0.0430716 -0.00453584 0)
(-0.0418324 -0.00498787 0)
(-0.0404789 -0.00541155 0)
(-0.0390188 -0.00580382 0)
(-0.0374605 -0.00616162 0)
(-0.0358131 -0.00648202 0)
(-0.0340866 -0.00676215 0)
(-0.0322914 -0.0069993 0)
(-0.0304388 -0.00719089 0)
(-0.0285404 -0.0073345 0)
(-0.0266087 -0.00742796 0)
(-0.0246564 -0.00746932 0)
(-0.0226966 -0.00745692 0)
(-0.020743 -0.00738945 0)
(-0.0188091 -0.00726597 0)
(-0.0169089 -0.00708599 0)
(-0.0150561 -0.00684954 0)
(-0.0132645 -0.00655726 0)
(-0.0115474 -0.00621049 0)
(-0.00991761 -0.00581142 0)
(-0.00838734 -0.00536323 0)
(-0.00696782 -0.00487029 0)
(-0.00566911 -0.0043384 0)
(-0.00449981 -0.00377509 0)
(-0.00346668 -0.00319001 0)
(-0.00257434 -0.00259536 0)
(-0.00182482 -0.00200645 0)
(-0.00121707 -0.00144238 0)
(-0.000746396 -0.000926763 0)
(-0.000403786 -0.000488564 0)
(-0.000174647 -0.000162911 0)
(-3.93046e-05 8.32411e-06 0)
(-6.12897e-05 6.85955e-05 0)
(-0.000265929 0.000401582 0)
(-0.000591198 0.000894553 0)
(-0.0010547 0.00150196 0)
(-0.00166831 0.00218512 0)
(-0.00243801 0.00291191 0)
(-0.00336556 0.00365602 0)
(-0.00444924 0.0043962 0)
(-0.00568451 0.00511547 0)
(-0.00706447 0.00580044 0)
(-0.00858031 0.00644069 0)
(-0.0102216 0.00702826 0)
(-0.0119767 0.00755721 0)
(-0.0138328 0.00802329 0)
(-0.0157766 0.0084236 0)
(-0.0177941 0.00875636 0)
(-0.0198709 0.00902073 0)
(-0.0219926 0.00921661 0)
(-0.0241445 0.00934454 0)
(-0.0263122 0.00940557 0)
(-0.0284814 0.00940117 0)
(-0.030638 0.00933317 0)
(-0.0327685 0.00920366 0)
(-0.0348597 0.009015 0)
(-0.0368987 0.00876973 0)
(-0.0388734 0.00847054 0)
(-0.0407721 0.00812027 0)
(-0.0425839 0.00772187 0)
(-0.0442984 0.00727839 0)
(-0.045906 0.00679297 0)
(-0.0473975 0.00626879 0)
(-0.0487648 0.00570915 0)
(-0.0500003 0.00511736 0)
(-0.0510973 0.00449682 0)
(-0.0520496 0.00385097 0)
(-0.0528521 0.00318332 0)
(-0.0535003 0.00249742 0)
(-0.0539906 0.00179689 0)
(-0.0543201 0.00108538 0)
(-0.0544869 0.000366624 0)
(-0.0544899 -0.000355617 0)
(-0.0543287 -0.00107752 0)
(-0.0540038 -0.00179521 0)
(-0.0535168 -0.00250479 0)
(-0.0528699 -0.00320229 0)
(-0.0520664 -0.00388373 0)
(-0.0511102 -0.00454512 0)
(-0.0500064 -0.00518245 0)
(-0.0487608 -0.00579169 0)
(-0.0473801 -0.00636887 0)
(-0.0458719 -0.00691002 0)
(-0.0442445 -0.00741125 0)
(-0.0425073 -0.00786873 0)
(-0.0406704 -0.00827874 0)
(-0.0387445 -0.0086377 0)
(-0.0367413 -0.00894219 0)
(-0.034673 -0.00918897 0)
(-0.0325526 -0.00937505 0)
(-0.0303937 -0.00949771 0)
(-0.0282101 -0.00955455 0)
(-0.0260164 -0.00954354 0)
(-0.0238273 -0.00946309 0)
(-0.021658 -0.00931209 0)
(-0.0195234 -0.00909 0)
(-0.0174388 -0.00879696 0)
(-0.015419 -0.00843386 0)
(-0.0134788 -0.00800246 0)
(-0.011632 -0.00750556 0)
(-0.00989219 -0.00694718 0)
(-0.00827164 -0.00633276 0)
(-0.00678155 -0.00566942 0)
(-0.00543158 -0.0049663 0)
(-0.00422964 -0.00423493 0)
(-0.00318146 -0.00348969 0)
(-0.00229025 -0.00274838 0)
(-0.00155627 -0.00203283 0)
(-0.000976189 -0.00136957 0)
(-0.000542454 -0.000790594 0)
(-0.000241765 -0.000333962 0)
(-5.53888e-05 -4.41097e-05 0)
(-7.81777e-05 0.000145667 0)
(-0.000336259 0.000638619 0)
(-0.000736483 0.00129673 0)
(-0.00129534 0.00207297 0)
(-0.00202308 0.00292664 0)
(-0.00292383 0.00382335 0)
(-0.00399754 0.00473453 0)
(-0.00524087 0.00563671 0)
(-0.00664774 0.00651088 0)
(-0.00820992 0.00734185 0)
(-0.00991729 0.00811762 0)
(-0.0117582 0.00882893 0)
(-0.0137199 0.00946877 0)
(-0.0157885 0.010032 0)
(-0.0179495 0.0105152 0)
(-0.0201877 0.0109161 0)
(-0.0224877 0.0112335 0)
(-0.0248338 0.0114673 0)
(-0.0272104 0.0116181 0)
(-0.0296018 0.011687 0)
(-0.0319926 0.0116757 0)
(-0.0343677 0.0115864 0)
(-0.0367124 0.0114216 0)
(-0.0390123 0.0111842 0)
(-0.0412538 0.0108771 0)
(-0.0434236 0.0105037 0)
(-0.0455091 0.0100674 0)
(-0.0474984 0.00957188 0)
(-0.0493804 0.00902078 0)
(-0.0511444 0.00841798 0)
(-0.0527809 0.00776741 0)
(-0.0542807 0.0070731 0)
(-0.0556357 0.00633915 0)
(-0.0568386 0.00556975 0)
(-0.0578828 0.00476915 0)
(-0.0587626 0.00394167 0)
(-0.0594733 0.00309171 0)
(-0.0600109 0.00222372 0)
(-0.0603723 0.00134223 0)
(-0.0605553 0.000451834 0)
(-0.0605589 -0.000442811 0)
(-0.0603825 -0.00133699 0)
(-0.0600269 -0.00222593 0)
(-0.0594936 -0.0031048 0)
(-0.058785 -0.00396873 0)
(-0.0579048 -0.00481282 0)
(-0.0568572 -0.00563214 0)
(-0.0556476 -0.00642175 0)
(-0.0542824 -0.00717672 0)
(-0.0527689 -0.00789215 0)
(-0.0511152 -0.00856318 0)
(-0.0493304 -0.00918503 0)
(-0.0474246 -0.00975301 0)
(-0.0454087 -0.0102626 0)
(-0.0432945 -0.0107094 0)
(-0.0410943 -0.0110892 0)
(-0.0388215 -0.0113981 0)
(-0.0364902 -0.0116324 0)
(-0.0341148 -0.011789 0)
(-0.0317105 -0.0118648 0)
(-0.0292929 -0.0118575 0)
(-0.0268779 -0.0117652 0)
(-0.0244819 -0.0115865 0)
(-0.022121 -0.011321 0)
(-0.0198117 -0.0109689 0)
(-0.0175699 -0.0105312 0)
(-0.0154116 -0.0100102 0)
(-0.013352 -0.00940941 0)
(-0.0114056 -0.00873361 0)
(-0.00958587 -0.00798934 0)
(-0.00790524 -0.00718504 0)
(-0.00637455 -0.0063314 0)
(-0.00500293 -0.00544176 0)
(-0.00379743 -0.00453255 0)
(-0.00276269 -0.00362383 0)
(-0.00190049 -0.00273982 0)
(-0.00120915 -0.00190955 0)
(-0.000682792 -0.00116745 0)
(-0.000309557 -0.000553743 0)
(-7.16385e-05 -0.000114541 0)
(-9.49031e-05 0.000241212 0)
(-0.000405953 0.000925909 0)
(-0.000880838 0.00177625 0)
(-0.00153505 0.0027444 0)
(-0.00237717 0.00378832 0)
(-0.00340937 0.00487194 0)
(-0.00462964 0.00596483 0)
(-0.00603279 0.00704171 0)
(-0.0076111 0.0080818 0)
(-0.00935477 0.0090683 0)
(-0.0112523 0.0099878 0)
(-0.0132908 0.0108298 0)
(-0.0154562 0.0115864 0)
(-0.0177336 0.0122515 0)
(-0.0201071 0.0128211 0)
(-0.0225607 0.0132925 0)
(-0.0250777 0.0136644 0)
(-0.0276415 0.0139365 0)
(-0.0302353 0.0141093 0)
(-0.0328424 0.0141842 0)
(-0.0354464 0.0141632 0)
(-0.0380312 0.0140487 0)
(-0.040581 0.0138438 0)
(-0.0430806 0.0135517 0)
(-0.0455153 0.013176 0)
(-0.047871 0.0127206 0)
(-0.0501343 0.0121897 0)
(-0.0522925 0.0115876 0)
(-0.0543335 0.0109187 0)
(-0.0562461 0.0101875 0)
(-0.0580199 0.00939896 0)
(-0.0596453 0.00855774 0)
(-0.0611136 0.00766884 0)
(-0.0624169 0.00673726 0)
(-0.0635482 0.00576815 0)
(-0.0645014 0.0047667 0)
(-0.0652714 0.00373821 0)
(-0.065854 0.00268805 0)
(-0.0662458 0.00162167 0)
(-0.0664447 0.000544598 0)
(-0.0664492 -0.000537546 0)
(-0.066259 -0.00161909 0)
(-0.0658748 -0.00269428 0)
(-0.0652983 -0.00375731 0)
(-0.064532 -0.00480232 0)
(-0.0635798 -0.00582343 0)
(-0.0624463 -0.00681469 0)
(-0.0611372 -0.00777019 0)
(-0.0596593 -0.008684 0)
(-0.0580204 -0.00955025 0)
(-0.0562293 -0.0103631 0)
(-0.0542955 -0.0111168 0)
(-0.05223 -0.0118059 0)
(-0.0500442 -0.0124247 0)
(-0.0477508 -0.0129682 0)
(-0.045363 -0.0134312 0)
(-0.042895 -0.0138093 0)
(-0.0403618 -0.0140979 0)
(-0.0377789 -0.0142933 0)
(-0.0351625 -0.0143921 0)
(-0.0325292 -0.0143913 0)
(-0.0298961 -0.0142888 0)
(-0.0272804 -0.014083 0)
(-0.0246996 -0.0137735 0)
(-0.0221711 -0.0133604 0)
(-0.0197122 -0.0128453 0)
(-0.0173399 -0.0122307 0)
(-0.0150705 -0.0115208 0)
(-0.0129197 -0.0107212 0)
(-0.0109023 -0.00983956 0)
(-0.00903191 -0.00888549 0)
(-0.00732062 -0.00787121 0)
(-0.00577894 -0.00681175 0)
(-0.00441543 -0.00572542 0)
(-0.00323631 -0.00463428 0)
(-0.00224507 -0.00356466 0)
(-0.00144188 -0.00254766 0)
(-0.000822624 -0.00161959 0)
(-0.000376916 -0.000822293 0)
(-8.77735e-05 -0.000202837 0)
(-0.000111306 0.000354857 0)
(-0.00047437 0.00126282 0)
(-0.00102296 0.00233253 0)
(-0.0017717 0.00351591 0)
(-0.0027276 0.00477005 0)
(-0.0038908 0.00605768 0)
(-0.00525725 0.00734696 0)
(-0.0068198 0.00861109 0)
(-0.0085689 0.00982784 0)
(-0.0104931 0.010979 0)
(-0.0125795 0.0120499 0)
(-0.0148137 0.013029 0)
(-0.0171803 0.0139074 0)
(-0.0196633 0.0146784 0)
(-0.0222457 0.0153373 0)
(-0.0249102 0.0158811 0)
(-0.0276393 0.0163082 0)
(-0.0304152 0.0166182 0)
(-0.0332201 0.0168118 0)
(-0.0360364 0.0168905 0)
(-0.0388466 0.0168565 0)
(-0.0416338 0.0167127 0)
(-0.0443813 0.0164625 0)
(-0.047073 0.0161097 0)
(-0.0496933 0.0156585 0)
(-0.0522273 0.0151136 0)
(-0.0546608 0.0144796 0)
(-0.0569804 0.0137617 0)
(-0.0591734 0.012965 0)
(-0.0612279 0.012095 0)
(-0.0631328 0.0111573 0)
(-0.064878 0.0101574 0)
(-0.0664544 0.00910135 0)
(-0.0678534 0.00799493 0)
(-0.0690678 0.00684422 0)
(-0.0700911 0.00565537 0)
(-0.0709179 0.00443463 0)
(-0.0715436 0.00318834 0)
(-0.0719649 0.00192293 0)
(-0.0721793 0.000644948 0)
(-0.0721853 -0.000639 0)
(-0.0719826 -0.00192221 0)
(-0.0715719 -0.00319789 0)
(-0.0709549 -0.00445921 0)
(-0.0701345 -0.00569924 0)
(-0.0691145 -0.00691105 0)
(-0.0678999 -0.00808765 0)
(-0.0664968 -0.00922206 0)
(-0.0649123 -0.0103073 0)
(-0.0631546 -0.0113365 0)
(-0.0612328 -0.0123027 0)
(-0.0591574 -0.0131993 0)
(-0.0569396 -0.0140196 0)
(-0.0545916 -0.0147573 0)
(-0.0521268 -0.0154063 0)
(-0.0495592 -0.0159606 0)
(-0.0469038 -0.0164149 0)
(-0.0441763 -0.0167641 0)
(-0.0413933 -0.0170036 0)
(-0.0385718 -0.0171295 0)
(-0.0357294 -0.0171385 0)
(-0.0328842 -0.017028 0)
(-0.0300544 -0.0167963 0)
(-0.0272587 -0.0164428 0)
(-0.0245154 -0.0159678 0)
(-0.0218431 -0.0153731 0)
(-0.0192597 -0.0146616 0)
(-0.0167829 -0.013838 0)
(-0.0144295 -0.0129089 0)
(-0.0122156 -0.0118829 0)
(-0.010156 -0.0107707 0)
(-0.00826441 -0.00958603 0)
(-0.00655268 -0.00834543 0)
(-0.00503101 -0.0070689 0)
(-0.00370737 -0.00578027 0)
(-0.00258711 -0.00450766 0)
(-0.00167229 -0.00328387 0)
(-0.000960645 -0.00214672 0)
(-0.000443196 -0.00113913 0)
(-0.000103632 -0.000308677 0)
(-0.000127305 0.000486136 0)
(-0.000541178 0.00164841 0)
(-0.00116213 0.00296454 0)
(-0.00200412 0.00438652 0)
(-0.00307261 0.00587101 0)
(-0.00436579 0.00737991 0)
(-0.00587751 0.00888031 0)
(-0.00759857 0.0103442 0)
(-0.00951754 0.0117482 0)
(-0.0116212 0.0130729 0)
(-0.013895 0.0143026 0)
(-0.0163231 0.0154247 0)
(-0.0188889 0.0164295 0)
(-0.021575 0.0173098 0)
(-0.0243632 0.0180604 0)
(-0.0272351 0.0186778 0)
(-0.0301722 0.0191604 0)
(-0.0331556 0.0195076 0)
(-0.0361667 0.0197203 0)
(-0.0391868 0.0198 0)
(-0.0421976 0.0197495 0)
(-0.0451812 0.0195719 0)
(-0.0481202 0.0192711 0)
(-0.0509976 0.0188516 0)
(-0.0537971 0.0183181 0)
(-0.056503 0.0176759 0)
(-0.0591005 0.0169306 0)
(-0.0615755 0.0160879 0)
(-0.0639145 0.0151539 0)
(-0.0661052 0.0141348 0)
(-0.068136 0.0130371 0)
(-0.0699962 0.0118674 0)
(-0.0716762 0.0106324 0)
(-0.0731672 0.00933897 0)
(-0.0744614 0.00799418 0)
(-0.0755521 0.00660513 0)
(-0.0764336 0.00517908 0)
(-0.0771011 0.00372339 0)
(-0.0775511 0.00224552 0)
(-0.0777809 0.000753067 0)
(-0.0777891 -0.000746295 0)
(-0.0775752 -0.00224479 0)
(-0.0771399 -0.00373454 0)
(-0.0764851 -0.00520761 0)
(-0.0756137 -0.00665598 0)
(-0.0745298 -0.0080716 0)
(-0.0732385 -0.00944639 0)
(-0.0717462 -0.0107722 0)
(-0.0700602 -0.0120411 0)
(-0.0681893 -0.0132449 0)
(-0.066143 -0.0143758 0)
(-0.063932 -0.0154259 0)
(-0.0615684 -0.0163877 0)
(-0.0590648 -0.0172538 0)
(-0.0564351 -0.018017 0)
(-0.0536942 -0.0186707 0)
(-0.0508578 -0.0192085 0)
(-0.0479423 -0.0196246 0)
(-0.0449651 -0.0199138 0)
(-0.0419442 -0.0200715 0)
(-0.0388979 -0.0200939 0)
(-0.0358454 -0.0199781 0)
(-0.032806 -0.0197222 0)
(-0.0297991 -0.0193253 0)
(-0.0268444 -0.0187879 0)
(-0.0239614 -0.0181119 0)
(-0.0211692 -0.0173007 0)
(-0.0184867 -0.0163596 0)
(-0.015932 -0.0152957 0)
(-0.0135225 -0.0141187 0)
(-0.0112743 -0.0128405 0)
(-0.0092027 -0.0114758 0)
(-0.00732115 -0.0100429 0)
(-0.00564155 -0.008563 0)
(-0.00417372 -0.00706165 0)
(-0.00292495 -0.00556845 0)
(-0.00189924 -0.0041176 0)
(-0.00109617 -0.00274805 0)
(-0.000508073 -0.00150347 0)
(-0.000119134 -0.000431646 0)
(-0.00014287 0.000634547 0)
(-0.000606253 0.0020816 0)
(-0.00129806 0.00367095 0)
(-0.00223173 0.00535489 0)
(-0.00341134 0.00708995 0)
(-0.00483313 0.00883748 0)
(-0.00648887 0.0105638 0)
(-0.00836728 0.0122401 0)
(-0.0104549 0.0138418 0)
(-0.0127369 0.0153488 0)
(-0.0151967 0.0167444 0)
(-0.0178173 0.0180152 0)
(-0.0205804 0.0191508 0)
(-0.0234672 0.0201434 0)
(-0.0264587 0.0209875 0)
(-0.0295352 0.0216794 0)
(-0.032677 0.0222172 0)
(-0.0358643 0.0226005 0)
(-0.0390774 0.0228301 0)
(-0.0422969 0.022908 0)
(-0.0455037 0.0228371 0)
(-0.0486788 0.022621 0)
(-0.0518042 0.0222643 0)
(-0.0548621 0.0217718 0)
(-0.0578355 0.0211491 0)
(-0.0607081 0.0204021 0)
(-0.0634643 0.0195371 0)
(-0.0660895 0.0185608 0)
(-0.0685697 0.01748 0)
(-0.0708919 0.0163019 0)
(-0.0730442 0.0150339 0)
(-0.0750154 0.0136834 0)
(-0.0767955 0.0122582 0)
(-0.0783752 0.0107662 0)
(-0.0797466 0.0092154 0)
(-0.0809026 0.00761392 0)
(-0.0818371 0.00597007 0)
(-0.0825454 0.0042923 0)
(-0.0830236 0.00258914 0)
(-0.083269 0.000869282 0)
(-0.08328 -0.000858493 0)
(-0.0830562 -0.00258528 0)
(-0.0825983 -0.00430209 0)
(-0.0819081 -0.00599982 0)
(-0.0809886 -0.00766932 0)
(-0.0798442 -0.00930138 0)
(-0.07848 -0.0108867 0)
(-0.0769028 -0.0124162 0)
(-0.0751201 -0.0138804 0)
(-0.0731409 -0.0152703 0)
(-0.0709752 -0.0165769 0)
(-0.0686341 -0.0177911 0)
(-0.0661301 -0.0189044 0)
(-0.0634764 -0.0199082 0)
(-0.0606874 -0.0207946 0)
(-0.0577787 -0.0215557 0)
(-0.0547665 -0.0221845 0)
(-0.0516682 -0.0226742 0)
(-0.0485017 -0.0230189 0)
(-0.0452858 -0.0232134 0)
(-0.0420399 -0.0232534 0)
(-0.0387839 -0.0231354 0)
(-0.0355381 -0.0228573 0)
(-0.0323231 -0.0224182 0)
(-0.0291594 -0.0218184 0)
(-0.0260676 -0.02106 0)
(-0.0230683 -0.0201468 0)
(-0.0201813 -0.0190845 0)
(-0.0174261 -0.017881 0)
(-0.0148215 -0.0165466 0)
(-0.0123853 -0.0150945 0)
(-0.010134 -0.0135405 0)
(-0.00808291 -0.0119038 0)
(-0.0062458 -0.0102074 0)
(-0.00463436 -0.00847792 0)
(-0.00325785 -0.00674631 0)
(-0.00212227 -0.0050479 0)
(-0.00122895 -0.00342255 0)
(-0.000571446 -0.00191443 0)
(-0.000134255 -0.000571301 0)
(-0.000158008 0.000799594 0)
(-0.000669611 0.00256128 0)
(-0.00143072 0.00445032 0)
(-0.00245443 0.0064195 0)
(-0.00374354 0.00842536 0)
(-0.00529241 0.010429 0)
(-0.00709073 0.0123962 0)
(-0.00912516 0.0142974 0)
(-0.0113803 0.0161075 0)
(-0.0138392 0.0178055 0)
(-0.0164838 0.0193739 0)
(-0.0192953 0.0207988 0)
(-0.0222541 0.0220693 0)
(-0.02534 0.0231771 0)
(-0.0285326 0.0241164 0)
(-0.0318112 0.0248832 0)
(-0.035155 0.0254757 0)
(-0.0385432 0.0258936 0)
(-0.0419551 0.0261377 0)
(-0.0453705 0.0262104 0)
(-0.0487693 0.026115 0)
(-0.052132 0.0258557 0)
(-0.0554395 0.0254373 0)
(-0.0586736 0.0248656 0)
(-0.0618166 0.0241467 0)
(-0.0648514 0.0232873 0)
(-0.067762 0.0222946 0)
(-0.0705331 0.0211759 0)
(-0.0731504 0.0199392 0)
(-0.0756003 0.0185924 0)
(-0.0778705 0.0171439 0)
(-0.0799494 0.0156022 0)
(-0.0818265 0.013976 0)
(-0.0834924 0.0122741 0)
(-0.0849388 0.0105057 0)
(-0.0861583 0.00868007 0)
(-0.0871448 0.00680647 0)
(-0.0878931 0.00489446 0)
(-0.0883993 0.00295372 0)
(-0.0886606 0.000994057 0)
(-0.0886753 -0.000974596 0)
(-0.0884429 -0.00294218 0)
(-0.0879641 -0.00489852 0)
(-0.0872408 -0.00683335 0)
(-0.0862761 -0.00873631 0)
(-0.0850743 -0.010597 0)
(-0.0836408 -0.012405 0)