/*--------------------------------*- C++ -*----------------------------------*\
| =========                 |                                                 |
| \\      /  F ield         | OpenFOAM: The Open Source CFD Toolbox           |
|  \\    /   O peration     | Version:  4.1                                   |
|   \\  /    A nd           | Web:      www.OpenFOAM.org                      |
|    \\/     M anipulation  |                                                 |
\*---------------------------------------------------------------------------*/
FoamFile
{
    version     2.0;
    format      ascii;
    class       volVectorField;
    location    "0.0807";
    object      U;
}
// * * * * * * * * * * * * * * * * * * * * * * * * * * * * * * * * * * * * * //

dimensions      [0 1 -1 0 0 0 0];

internalField   nonuniform List<vector> 
441
(
(0.0036785 -0.00478683 0)
(0.00959732 -0.00253956 0)
(-0.00063489 -2.20215e-165 0)
(0.00193389 -3.26738e-266 0)
(-0.00838499 -0.007736 0)
(-0.00193389 -3.01742e-232 0)
(-1.13265e-202 -5.50281e-203 0)
(-1.37561e-203 -7.21506e-228 0)
(-1.69802e-212 -3.14631e-213 0)
(-0.00606229 8.99886e-266 0)
(-0.0742548 0.0242504 0)
(-0.0933817 0.0127033 0)
(-0.105315 0.00583346 0)
(-0.0928396 0.000420081 0)
(-0.0766088 -0.00160774 0)
(-0.051277 -0.00297532 0)
(-0.0293949 -0.00214421 0)
(-0.00978491 -0.00161736 0)
(0.00223463 0.000685928 0)
(0.00421479 0.00144291 0)
(0.00450397 0.00294605 0)
(0.00376217 -0.00830258 0)
(-0.00105573 0.00678492 0)
(-0.027333 0.00839079 0)
(-0.0588691 0.010679 0)
(-0.105888 0.0107328 0)
(-0.150239 -0.00331283 0)
(-0.191991 -0.000170482 0)
(-0.232147 0.00163261 0)
(-0.267817 0.0130526 0)
(-0.303799 0.0661023 0)
(-0.328345 0.0609148 0)
(-0.322817 0.0187753 0)
(-0.308311 -0.00696731 0)
(-0.266791 -0.0299055 0)
(-0.217925 -0.0401323 0)
(-0.156118 -0.04555 0)
(-0.100109 -0.0391695 0)
(-0.0500681 -0.0312885 0)
(-0.0161028 -0.0141676 0)
(-0.00150838 -0.00443912 0)
(0.00486072 0.00599807 0)
(0.00748447 -0.00800266 0)
(-0.00522168 0.0281682 0)
(-0.053807 0.0564246 0)
(-0.119628 0.0760284 0)
(-0.200031 0.0824678 0)
(-0.283247 0.0819888 0)
(-0.372676 0.0790471 0)
(-0.445441 0.0733584 0)
(-0.516952 0.0689061 0)
(-0.552031 0.0650791 0)
(-0.548194 0.044198 0)
(-0.530495 -0.00608742 0)
(-0.494288 -0.0495054 0)
(-0.43014 -0.089767 0)
(-0.353513 -0.111309 0)
(-0.260547 -0.121079 0)
(-0.174155 -0.107005 0)
(-0.0948438 -0.0861457 0)
(-0.0388031 -0.0467676 0)
(-0.00845234 -0.0199673 0)
(0.00628549 0.0066923 0)
(0.00630215 -0.0108869 0)
(-0.0160261 0.0698322 0)
(-0.0959741 0.122767 0)
(-0.190273 0.159324 0)
(-0.301384 0.174718 0)
(-0.413249 0.172088 0)
(-0.523488 0.163744 0)
(-0.618987 0.146819 0)
(-0.697627 0.122099 0)
(-0.744095 0.094636 0)
(-0.753601 0.03911 0)
(-0.730487 -0.03627 0)
(-0.681574 -0.10749 0)
(-0.596961 -0.171876 0)
(-0.495211 -0.209569 0)
(-0.37152 -0.22646 0)
(-0.254552 -0.204314 0)
(-0.143984 -0.168334 0)
(-0.0640753 -0.0996754 0)
(-0.0158868 -0.0509213 0)
(0.00794248 0.0042172 0)
(6.85191e-165 0.00157554 0)
(-0.0242772 0.129988 0)
(-0.13935 0.229877 0)
(-0.257188 0.279977 0)
(-0.39737 0.304324 0)
(-0.533695 0.302226 0)
(-0.669423 0.283447 0)
(-0.784532 0.246379 0)
(-0.880211 0.193269 0)
(-0.936959 0.121765 0)
(-0.95434 0.0310026 0)
(-0.932525 -0.0778546 0)
(-0.875955 -0.182264 0)
(-0.775486 -0.276495 0)
(-0.650721 -0.335664 0)
(-0.494677 -0.362656 0)
(-0.344693 -0.333043 0)
(-0.196056 -0.277771 0)
(-0.0896397 -0.173137 0)
(-0.018196 -0.0928763 0)
(0.0145521 -0.000462158 0)
(-5.55481e-266 0.00573645 0)
(-0.0887622 0.213948 0)
(-0.194699 0.35366 0)
(-0.336186 0.419197 0)
(-0.489647 0.451081 0)
(-0.646964 0.445219 0)
(-0.798991 0.415213 0)
(-0.9333 0.357863 0)
(-1.04425 0.275421 0)
(-1.11834 0.167971 0)
(-1.15296 0.0349775 0)
(-1.13949 -0.115698 0)
(-1.08387 -0.264285 0)
(-0.972394 -0.398769 0)
(-0.827568 -0.489939 0)
(-0.637923 -0.53502 0)
(-0.450839 -0.501883 0)
(-0.257536 -0.426586 0)
(-0.1191 -0.27553 0)
(-0.0202954 -0.158366 0)
(0.016134 0.00191207 0)
(-0.0229458 0.0935586 0)
(-0.123739 0.321098 0)
(-0.24578 0.477663 0)
(-0.401475 0.573063 0)
(-0.573902 0.614251 0)
(-0.749664 0.610069 0)
(-0.922007 0.568932 0)
(-1.07638 0.490678 0)
(-1.20836 0.378049 0)
(-1.30303 0.230218 0)
(-1.35768 0.052648 0)
(-1.35905 -0.147279 0)
(-1.3111 -0.348362 0)
(-1.195 -0.533768 0)
(-1.03455 -0.668678 0)
(-0.810243 -0.741324 0)
(-0.5834 -0.711149 0)
(-0.33212 -0.61202 0)
(-0.158942 -0.407095 0)
(-0.00724487 -0.229984 0)
(5.95628e-266 -0.00403351 0)
(-0.0169281 0.15488 0)
(-0.118491 0.437945 0)
(-0.268686 0.631936 0)
(-0.444879 0.748092 0)
(-0.637205 0.799477 0)
(-0.832145 0.793598 0)
(-1.02308 0.742216 0)
(-1.1986 0.644074 0)
(-1.35285 0.502489 0)
(-1.47271 0.316715 0)
(-1.5534 0.0914266 0)
(-1.5775 -0.163381 0)
(-1.54669 -0.427814 0)
(-1.4354 -0.677589 0)
(-1.2669 -0.874021 0)
(-1.01226 -0.990412 0)
(-0.743117 -0.978374 0)
(-0.42865 -0.857478 0)
(-0.20648 -0.595759 0)
(-0.00361728 -0.326899 0)
(2.5876e-24 -1.07776e-24 0)
(-0.0150397 0.225331 0)
(-0.122119 0.570972 0)
(-0.289017 0.802398 0)
(-0.480113 0.939685 0)
(-0.688825 1.00015 0)
(-0.899165 0.994281 0)
(-1.10691 0.934432 0)
(-1.30162 0.819248 0)
(-1.47813 0.651872 0)
(-1.6242 0.430102 0)
(-1.73371 0.158025 0)
(-1.78709 -0.154548 0)
(-1.78251 -0.489023 0)
(-1.68796 -0.814914 0)
(-1.52359 -1.08963 0)
(-1.24816 -1.26841 0)
(-0.941216 -1.2911 0)
(-0.558021 -1.1541 0)
(-0.277062 -0.824321 0)
(-0.00495679 -0.444464 0)
(1.05364e-76 -6.46901e-25 0)
(-0.0130735 0.292605 0)
(-0.119738 0.713635 0)
(-0.29603 0.990635 0)
(-0.495797 1.14845 0)
(-0.714379 1.21891 0)
(-0.934413 1.2116 0)
(-1.15261 1.14488 0)
(-1.36144 1.01483 0)
(-1.55553 0.825224 0)
(-1.72566 0.571559 0)
(-1.86415 0.254642 0)
(-1.95128 -0.115779 0)
(-1.9816 -0.526273 0)
(-1.91744 -0.939188 0)
(-1.77327 -1.31296 0)
(-1.49389 -1.57887 0)
(-1.15958 -1.667 0)
(-0.709694 -1.53214 0)
(-0.361057 -1.14314 0)
(-0.0070989 -0.61946 0)
(2.9304e-164 -2.63411e-77 0)
(-0.0130914 0.354673 0)
(-0.1207 0.852161 0)
(-0.302259 1.17611 0)
(-0.505047 1.35572 0)
(-0.725599 1.43702 0)
(-0.946644 1.43044 0)
(-1.16528 1.36031 0)
(-1.37821 1.22064 0)
(-1.57967 1.01565 0)
(-1.76572 0.737854 0)
(-1.92708 0.384246 0)
(-2.04783 -0.0375127 0)
(-2.11812 -0.52082 0)
(-2.09861 -1.0242 0)
(-1.99471 -1.50976 0)
(-1.7377 -1.88598 0)
(-1.40007 -2.07033 0)
(-0.901737 -1.96107 0)
(-0.485894 -1.51512 0)
(-0.0804934 -0.818886 0)
(1.78321e-265 0.0132734 0)
(-0.0136185 0.427288 0)
(-0.117533 1.00497 0)
(-0.296737 1.37645 0)
(-0.493261 1.57247 0)
(-0.70452 1.66164 0)
(-0.914476 1.65121 0)
(-1.11973 1.57707 0)
(-1.3225 1.42875 0)
(-1.5162 1.2129 0)
(-1.70414 0.918263 0)
(-1.87619 0.536838 0)
(-2.02327 0.0742556 0)
(-2.13291 -0.474872 0)
(-2.16771 -1.06481 0)
(-2.12367 -1.67265 0)
(-1.9194 -2.18013 0)
(-1.60816 -2.50172 0)
(-1.08098 -2.46082 0)
(-0.584671 -1.95849 0)
(-0.0758135 -1.12525 0)
(0.0530936 -0.0762231 0)
(-0.0168778 0.481438 0)
(-0.120982 1.13233 0)
(-0.299268 1.54893 0)
(-0.485027 1.76019 0)
(-0.675859 1.85642 0)
(-0.861109 1.84308 0)
(-1.03439 1.76739 0)
(-1.20797 1.61559 0)
(-1.37194 1.39706 0)
(-1.54147 1.09736 0)
(-1.7035 0.704158 0)
(-1.86268 0.219697 0)
(-2.00159 -0.373673 0)
(-2.09545 -1.03259 0)
(-2.12674 -1.75259 0)
(-2.00947 -2.40321 0)
(-1.77278 -2.90204 0)
(-1.24266 -2.99352 0)
(-0.714404 -2.51386 0)
(0.0426645 -1.46387 0)
(2.45209e-231 -0.0132734 0)
(-0.0213977 0.568112 0)
(-0.122808 1.29042 0)
(-0.292899 1.74439 0)
(-0.457498 1.95019 0)
(-0.613997 2.04092 0)
(-0.758733 2.01015 0)
(-0.881749 1.92598 0)
(-1.00602 1.76646 0)
(-1.11793 1.54725 0)
(-1.24507 1.24992 0)
(-1.37236 0.858074 0)
(-1.51978 0.372452 0)
(-1.66905 -0.24209 0)
(-1.81272 -0.940016 0)
(-1.92766 -1.75753 0)
(-1.93382 -2.53822 0)
(-1.83123 -3.26694 0)
(-1.40484 -3.53741 0)
(-0.892519 -3.23732 0)
(-0.003051 -1.87742 0)
(5.81156e-202 4.58017e-184 0)
(-0.0373432 0.618733 0)
(-0.153597 1.39778 0)
(-0.325543 1.87991 0)
(-0.46749 2.0759 0)
(-0.572332 2.15622 0)
(-0.658516 2.10757 0)
(-0.704719 2.0146 0)
(-0.755623 1.85073 0)
(-0.786922 1.6368 0)
(-0.845729 1.35271 0)
(-0.907965 0.980381 0)
(-1.01829 0.519085 0)
(-1.14718 -0.0773537 0)
(-1.32736 -0.769803 0)
(-1.51005 -1.62331 0)
(-1.67458 -2.4962 0)
(-1.74206 -3.4144 0)
(-1.5323 -3.94077 0)
(-1.10943 -3.89207 0)
(-0.0114038 -2.38673 0)
(1.83207e-183 -1.25363e-184 0)
(-0.0559943 0.76723 0)
(-0.187823 1.58295 0)
(-0.350888 2.06785 0)
(-0.456424 2.19844 0)
(-0.492949 2.23925 0)
(-0.502772 2.14338 0)
(-0.454475 2.02751 0)
(-0.412578 1.84962 0)
(-0.34342 1.63935 0)
(-0.310255 1.37251 0)
(-0.281986 1.03077 0)
(-0.322158 0.614196 0)
(-0.397033 0.0654495 0)
(-0.569683 -0.573594 0)
(-0.792857 -1.41333 0)
(-1.09213 -2.30256 0)
(-1.38404 -3.41384 0)
(-1.50158 -4.17669 0)
(-1.39929 -4.77507 0)
(-0.465489 -3.03408 0)
(4.39881e-254 -4.58017e-184 0)
(-0.121808 0.848802 0)
(-0.321438 1.67961 0)
(-0.47639 2.14355 0)
(-0.533321 2.20836 0)
(-0.452026 2.20196 0)
(-0.351022 2.06424 0)
(-0.164491 1.92549 0)
(-0.000153404 1.73879 0)
(0.199748 1.53619 0)
(0.346199 1.29386 0)
(0.489243 0.99467 0)
(0.536412 0.640248 0)
(0.546998 0.173979 0)
(0.397104 -0.364522 0)
(0.18895 -1.09283 0)
(-0.267953 -1.89395 0)
(-0.719051 -2.97883 0)
(-1.45953 -3.92436 0)
(-1.6486 -4.83747 0)
(-2.07247 -3.86232 0)
(-2.58808e-264 -0.215793 0)
(-0.178165 1.23216 0)
(-0.418392 1.94192 0)
(-0.507633 2.30218 0)
(-0.463889 2.1743 0)
(-0.22861 2.07077 0)
(0.0163033 1.8554 0)
(0.357701 1.68322 0)
(0.660232 1.48548 0)
(0.996735 1.29518 0)
(1.26447 1.08492 0)
(1.5254 0.840155 0)
(1.67467 0.561543 0)
(1.78299 0.201469 0)
(1.70843 -0.206029 0)
(1.55882 -0.759177 0)
(1.11473 -1.37828 0)
(0.579284 -2.25383 0)
(-0.351074 -3.20322 0)
(-1.08349 -4.2525 0)
(-1.84215 -4.53258 0)
(-0.86317 -2.31571 0)
(-0.400498 1.41116 0)
(-0.726438 1.98042 0)
(-0.521577 2.18329 0)
(-0.243003 1.91234 0)
(0.311134 1.72268 0)
(0.773093 1.46987 0)
(1.3266 1.28349 0)
(1.78242 1.09768 0)
(2.25657 0.933932 0)
(2.62928 0.768208 0)
(2.98618 0.586964 0)
(3.20802 0.391437 0)
(3.39154 0.143714 0)
(3.3637 -0.124739 0)
(3.28394 -0.495638 0)
(2.85563 -0.892598 0)
(2.38215 -1.51404 0)
(1.3596 -2.23219 0)
(0.455397 -3.35189 0)
(-0.707998 -4.00463 0)
(-0.701041 -2.96387 0)
(-0.257167 2.42104 0)
(-0.103989 2.05765 0)
(0.682667 1.86913 0)
(1.32883 1.3334 0)
(2.14409 1.07471 0)
(2.77067 0.832776 0)
(3.42466 0.679865 0)
(3.93805 0.551163 0)
(4.43883 0.448783 0)
(4.82147 0.355045 0)
(5.17642 0.259937 0)
(5.39612 0.161611 0)
(5.57855 0.0425475 0)
(5.56503 -0.0855908 0)
(5.51341 -0.26113 0)
(5.14786 -0.455025 0)
(4.75876 -0.789377 0)
(3.82784 -1.24427 0)
(2.86504 -2.25342 0)
(1.09171 -3.33011 0)
(-0.0461521 -3.79898 0)
(1.66729 1.6696 0)
(2.70303 0.974648 0)
(4.54316 0.748336 0)
(5.38167 0.423727 0)
(6.24883 0.286295 0)
(6.75892 0.177935 0)
(7.23868 0.121185 0)
(7.56246 0.0808747 0)
(7.86091 0.0544882 0)
(8.06397 0.0339677 0)
(8.24659 0.0156599 0)
(8.33656 -0.00157266 0)
(8.40967 -0.0226653 0)
(8.35261 -0.043474 0)
(8.2921 -0.0788128 0)
(8.00553 -0.11179 0)
(7.75006 -0.200946 0)
(6.99618 -0.293456 0)
(6.26263 -0.625305 0)
(4.04596 -0.997462 0)
(2.0054 -1.81809 0)
)
;

boundaryField
{
    movingWall
    {
        type            fixedValue;
        value           uniform (10 0 0);
    }
    fixedWalls
    {
        type            noSlip;
    }
    frontAndBack
    {
        type            empty;
    }
}


// ************************************************************************* //
