/*--------------------------------*- C++ -*----------------------------------*\
| =========                 |                                                 |
| \\      /  F ield         | OpenFOAM: The Open Source CFD Toolbox           |
|  \\    /   O peration     | Version:  4.1                                   |
|   \\  /    A nd           | Web:      www.OpenFOAM.org                      |
|    \\/     M anipulation  |                                                 |
\*---------------------------------------------------------------------------*/
FoamFile
{
    version     2.0;
    format      ascii;
    class       volVectorField;
    location    "7.5";
    object      U;
}
// * * * * * * * * * * * * * * * * * * * * * * * * * * * * * * * * * * * * * //

dimensions      [0 1 -1 0 0 0 0];

internalField   nonuniform List<vector> 
400
(
(0.000192169 -0.000189313 0)
(-0.000101022 8.64265e-05 0)
(-0.00152496 0.000328219 0)
(-0.00368128 0.00050611 0)
(-0.00634052 0.000592663 0)
(-0.00917253 0.000621431 0)
(-0.0119581 0.000597305 0)
(-0.0144601 0.000524492 0)
(-0.0164568 0.000397034 0)
(-0.0177177 0.000213087 0)
(-0.0180401 -2.11407e-05 0)
(-0.0172879 -0.000284265 0)
(-0.0154432 -0.000539636 0)
(-0.0126557 -0.000737623 0)
(-0.00924786 -0.000829783 0)
(-0.00571523 -0.000776728 0)
(-0.00259567 -0.000579914 0)
(-0.000436897 -0.0002595 0)
(0.000530317 6.59246e-05 0)
(0.000308373 0.000293551 0)
(-9.0023e-05 9.1801e-05 0)
(-0.00202166 0.00190262 0)
(-0.00633993 0.00358232 0)
(-0.0121619 0.0047834 0)
(-0.0189957 0.0053966 0)
(-0.0261277 0.0055109 0)
(-0.0330164 0.00516426 0)
(-0.039088 0.00437575 0)
(-0.043811 0.00314353 0)
(-0.0466721 0.00149628 0)
(-0.047253 -0.000473597 0)
(-0.0453054 -0.00258274 0)
(-0.0408439 -0.00455896 0)
(-0.0342265 -0.00607077 0)
(-0.026159 -0.00680067 0)
(-0.017685 -0.00652424 0)
(-0.00994083 -0.00523899 0)
(-0.00408396 -0.00316571 0)
(-0.000641245 -0.000957418 0)
(0.00017008 0.000562698 0)
(-0.000410458 0.0016458 0)
(-0.00425931 0.00634416 0)
(-0.0115039 0.0103027 0)
(-0.0206929 0.0130203 0)
(-0.0311282 0.0143541 0)
(-0.0418244 0.0144412 0)
(-0.052021 0.0133562 0)
(-0.0609145 0.0111439 0)
(-0.0677677 0.00783662 0)
(-0.0718889 0.00354735 0)
(-0.0727281 -0.00146354 0)
(-0.0699663 -0.00674227 0)
(-0.0636219 -0.011651 0)
(-0.0541505 -0.0154355 0)
(-0.0424588 -0.0173742 0)
(-0.0299211 -0.0169587 0)
(-0.0180795 -0.0141529 0)
(-0.00859984 -0.0094566 0)
(-0.00233977 -0.00420156 0)
(-1.90988e-05 -4.44693e-05 0)
(-0.000724529 0.00434497 0)
(-0.00645632 0.0131171 0)
(-0.016508 0.0199204 0)
(-0.0288011 0.024365 0)
(-0.0424413 0.0264114 0)
(-0.0562295 0.0262856 0)
(-0.0692674 0.0241153 0)
(-0.0806083 0.0199801 0)
(-0.0893903 0.0139623 0)
(-0.0948045 0.00628047 0)
(-0.0961954 -0.00260955 0)
(-0.0931485 -0.0119492 0)
(-0.0856036 -0.0206864 0)
(-0.0739819 -0.0275715 0)
(-0.0592365 -0.0313741 0)
(-0.0429458 -0.0311763 0)
(-0.0270021 -0.0267955 0)
(-0.0136541 -0.0189596 0)
(-0.0042337 -0.00970057 0)
(-0.000210145 -0.00154616 0)
(-0.000992648 0.0081611 0)
(-0.0084278 0.0221914 0)
(-0.0210497 0.0323894 0)
(-0.0361644 0.0387366 0)
(-0.0526921 0.0414591 0)
(-0.0692603 0.0409408 0)
(-0.0848921 0.037393 0)
(-0.0985641 0.0309397 0)
(-0.109347 0.0217147 0)
(-0.116348 0.0100363 0)
(-0.1188 -0.00345501 0)
(-0.116139 -0.0177046 0)
(-0.10812 -0.0312341 0)
(-0.0949837 -0.0422386 0)
(-0.0775753 -0.0488472 0)
(-0.0575671 -0.0495314 0)
(-0.0371909 -0.0437363 0)
(-0.0194336 -0.0322655 0)
(-0.00632833 -0.0178525 0)
(-0.000386273 -0.00403394 0)
(-0.0012209 0.0129185 0)
(-0.0101227 0.0332458 0)
(-0.0249828 0.0473186 0)
(-0.0425624 0.0557128 0)
(-0.0616234 0.0590841 0)
(-0.0806644 0.0580585 0)
(-0.0986816 0.0529715 0)
(-0.114633 0.0439983 0)
(-0.12757 0.0313079 0)
(-0.136546 0.0152795 0)
(-0.140678 -0.00331899 0)
(-0.139202 -0.0231994 0)
(-0.131586 -0.0424951 0)
(-0.117742 -0.0588183 0)
(-0.0982153 -0.069513 0)
(-0.074604 -0.0721607 0)
(-0.0494066 -0.06546 0)
(-0.0264937 -0.0499813 0)
(-0.00889471 -0.0291018 0)
(-0.000597612 -0.00762403 0)
(-0.00140012 0.0184728 0)
(-0.011479 0.045987 0)
(-0.0281572 0.0643594 0)
(-0.0477509 0.0749448 0)
(-0.0688998 0.0789782 0)
(-0.0900219 0.0774141 0)
(-0.110133 0.0707582 0)
(-0.128226 0.0592422 0)
(-0.143387 0.0430437 0)
(-0.154655 0.0225415 0)
(-0.161051 -0.00146089 0)
(-0.161599 -0.0275507 0)
(-0.155418 -0.0535688 0)
(-0.141947 -0.0765727 0)
(-0.121222 -0.0930055 0)
(-0.0944922 -0.0992304 0)
(-0.0643031 -0.0926578 0)
(-0.0354379 -0.0730732 0)
(-0.012256 -0.0442674 0)
(-0.000893264 -0.0126421 0)
(-0.00152556 0.0246228 0)
(-0.0124447 0.0600064 0)
(-0.0304339 0.0830116 0)
(-0.051475 0.0959088 0)
(-0.0741204 0.100644 0)
(-0.0967568 0.0985835 0)
(-0.118462 0.090455 0)
(-0.138321 0.0765564 0)
(-0.155513 0.0570459 0)
(-0.169128 0.0322312 0)
(-0.178155 0.00283837 0)
(-0.181452 -0.0297462 0)
(-0.177795 -0.0632371 0)
(-0.166075 -0.0942658 0)
(-0.145602 -0.118361 0)
(-0.11691 -0.130376 0)
(-0.0821553 -0.125747 0)
(-0.0467954 -0.102571 0)
(-0.0167778 -0.0644187 0)
(-0.00134004 -0.0195843 0)
(-0.00159425 0.0311608 0)
(-0.0129851 0.0748618 0)
(-0.0317056 0.102711 0)
(-0.0535078 0.117979 0)
(-0.0768847 0.12344 0)
(-0.100238 0.120952 0)
(-0.122748 0.111525 0)
(-0.143647 0.0955422 0)
(-0.162275 0.0731282 0)
(-0.177862 0.0444595 0)
(-0.189472 0.0100729 0)
(-0.195917 -0.028845 0)
(-0.195732 -0.0701148 0)
(-0.187284 -0.110201 0)
(-0.169031 -0.143892 0)
(-0.140397 -0.164421 0)
(-0.102505 -0.164543 0)
(-0.0608235 -0.139361 0)
(-0.0228272 -0.090852 0)
(-0.00202023 -0.0291693 0)
(-0.00161419 0.0378544 0)
(-0.013124 0.0900468 0)
(-0.031966 0.122781 0)
(-0.0537474 0.140362 0)
(-0.0769173 0.146496 0)
(-0.0999443 0.143613 0)
(-0.122146 0.133074 0)
(-0.142962 0.115386 0)
(-0.161964 0.090646 0)
(-0.178621 0.0588685 0)
(-0.19221 0.0203162 0)
(-0.201666 -0.0241885 0)
(-0.205481 -0.0728407 0)
(-0.201664 -0.122321 0)
(-0.187865 -0.167099 0)
(-0.162119 -0.19902 0)
(-0.123812 -0.2077 0)
(-0.0772586 -0.183683 0)
(-0.0307401 -0.124864 0)
(-0.0030482 -0.0423341 0)
(-0.00162114 0.0445483 0)
(-0.0129894 0.105129 0)
(-0.0313789 0.142562 0)
(-0.0523089 0.162188 0)
(-0.0741936 0.168779 0)
(-0.095636 0.165408 0)
(-0.116134 0.153876 0)
(-0.135394 0.134858 0)
(-0.153285 0.10846 0)
(-0.169609 0.0745376 0)
(-0.183981 0.0330421 0)
(-0.195649 -0.0156835 0)
(-0.203315 -0.0704566 0)
(-0.204926 -0.128618 0)
(-0.197594 -0.18496 0)
(-0.177972 -0.230644 0)
(-0.143209 -0.252277 0)
(-0.0949771 -0.234497 0)
(-0.0407187 -0.167398 0)
(-0.00458302 -0.0602463 0)
(-0.00168298 0.0511218 0)
(-0.0128828 0.119685 0)
(-0.0303912 0.161338 0)
(-0.0496659 0.18245 0)
(-0.0690958 0.189051 0)
(-0.0875378 0.184925 0)
(-0.104729 0.172401 0)
(-0.12072 0.152369 0)
(-0.135723 0.124996 0)
(-0.149941 0.0900113 0)
(-0.163417 0.0470733 0)
(-0.175859 -0.00399261 0)
(-0.186421 -0.0627809 0)
(-0.193348 -0.127681 0)
(-0.193702 -0.194548 0)
(-0.183131 -0.254993 0)
(-0.156567 -0.293623 0)
(-0.111664 -0.288802 0)
(-0.0526254 -0.218422 0)
(-0.00683723 -0.0842356 0)
(-0.00195979 0.0578999 0)
(-0.0133396 0.133784 0)
(-0.0297437 0.178733 0)
(-0.0466211 0.200288 0)
(-0.0623597 0.20608 0)
(-0.0762815 0.200664 0)
(-0.0884468 0.18697 0)
(-0.0993426 0.166128 0)
(-0.109559 0.138399 0)
(-0.119724 0.103434 0)
(-0.13034 0.060653 0)
(-0.141641 0.00941281 0)
(-0.153408 -0.0506731 0)
(-0.164502 -0.119255 0)
(-0.172535 -0.193868 0)
(-0.172856 -0.26791 0)
(-0.158925 -0.325892 0)
(-0.123631 -0.34128 0)
(-0.0656109 -0.276165 0)
(-0.0100601 -0.115664 0)
(-0.00270064 0.0651455 0)
(-0.0153367 0.147307 0)
(-0.0307219 0.194097 0)
(-0.0445114 0.214506 0)
(-0.0551576 0.218321 0)
(-0.0628574 0.21087 0)
(-0.0681206 0.195723 0)
(-0.0720003 0.17421 0)
(-0.0754753 0.14669 0)
(-0.0795902 0.112763 0)
(-0.085272 0.0716885 0)
(-0.0932661 0.0224674 0)
(-0.104038 -0.0359439 0)
(-0.117267 -0.104409 0)
(-0.131658 -0.182436 0)
(-0.143117 -0.266361 0)
(-0.14506 -0.343036 0)
(-0.125883 -0.38446 0)
(-0.0775999 -0.336219 0)
(-0.0144576 -0.15543 0)
(-0.00445221 0.0751242 0)
(-0.0201524 0.161946 0)
(-0.0345706 0.207938 0)
(-0.0443205 0.224438 0)
(-0.0480532 0.224397 0)
(-0.047493 0.213789 0)
(-0.0437352 0.196735 0)
(-0.03855 0.174616 0)
(-0.0332877 0.147806 0)
(-0.0293709 0.115845 0)
(-0.0280762 0.0778814 0)
(-0.0305802 0.032708 0)
(-0.0379873 -0.0211445 0)
(-0.0508292 -0.0854595 0)
(-0.0692556 -0.161566 0)
(-0.0904729 -0.249302 0)
(-0.109688 -0.340179 0)
(-0.112186 -0.409776 0)
(-0.0845784 -0.391181 0)
(-0.0199819 -0.203538 0)
(-0.00806588 0.0880445 0)
(-0.030371 0.176754 0)
(-0.0432164 0.218185 0)
(-0.0468349 0.227353 0)
(-0.0403907 0.221435 0)
(-0.0284282 0.206713 0)
(-0.0127477 0.187557 0)
(0.00401148 0.165137 0)
(0.0202131 0.139694 0)
(0.034148 0.11067 0)
(0.0443126 0.0771488 0)
(0.0492282 0.0378587 0)
(0.0472841 -0.00882537 0)
(0.037222 -0.0651411 0)
(0.017391 -0.133679 0)
(-0.011105 -0.217462 0)
(-0.0470355 -0.314089 0)
(-0.0748607 -0.408191 0)
(-0.0798614 -0.42969 0)
(-0.0257581 -0.256762 0)
(-0.0146666 0.114295 0)
(-0.0455763 0.197265 0)
(-0.0524347 0.226008 0)
(-0.0445541 0.221412 0)
(-0.0223873 0.206441 0)
(0.00534488 0.186476 0)
(0.0363382 0.165225 0)
(0.0671627 0.143133 0)
(0.0961262 0.120009 0)
(0.12143 0.0951047 0)
(0.141536 0.0674398 0)
(0.154847 0.0357951 0)
(0.159467 -0.00139005 0)
(0.153637 -0.0463277 0)
(0.134483 -0.10213 0)
(0.10141 -0.173799 0)
(0.0510028 -0.264909 0)
(-0.00321235 -0.373165 0)
(-0.0520341 -0.438718 0)
(-0.0285423 -0.309652 0)
(-0.0256315 0.14197 0)
(-0.0657712 0.209077 0)
(-0.0484668 0.216359 0)
(-0.0154161 0.194919 0)
(0.0329211 0.171181 0)
(0.0824691 0.14785 0)
(0.131921 0.126618 0)
(0.177932 0.10694 0)
(0.219451 0.088029 0)
(0.255122 0.0689765 0)
(0.283766 0.048812 0)
(0.303989 0.0265044 0)
(0.31396 0.000769318 0)
(0.31169 -0.0301213 0)
(0.293663 -0.0689842 0)
(0.257806 -0.120828 0)
(0.196344 -0.193055 0)
(0.11824 -0.296276 0)
(0.0175285 -0.395298 0)
(-0.0172206 -0.338844 0)
(-0.0187226 0.214692 0)
(-0.0197642 0.215373 0)
(0.0565505 0.181451 0)
(0.128396 0.140119 0)
(0.205001 0.110192 0)
(0.272916 0.0879496 0)
(0.334263 0.0707662 0)
(0.387663 0.056913 0)
(0.433478 0.0449525 0)
(0.471448 0.0339092 0)
(0.50117 0.0229544 0)
(0.521842 0.0113783 0)
(0.532143 -0.00165019 0)
(0.530306 -0.0171122 0)
(0.513157 -0.0370039 0)
(0.477712 -0.0647364 0)
(0.414249 -0.108534 0)
(0.323697 -0.186699 0)
(0.173031 -0.296536 0)
(0.0429448 -0.335017 0)
(0.21136 0.12958 0)
(0.297365 0.100967 0)
(0.451267 0.0674616 0)
(0.543314 0.0442812 0)
(0.617962 0.0290372 0)
(0.673716 0.0198015 0)
(0.717515 0.0138112 0)
(0.752017 0.00978408 0)
(0.779208 0.00682652 0)
(0.800089 0.00444166 0)
(0.815088 0.00229768 0)
(0.824143 0.000174539 0)
(0.826748 -0.00214968 0)
(0.821891 -0.00486252 0)
(0.807689 -0.00850916 0)
(0.781155 -0.0136855 0)
(0.734258 -0.0229008 0)
(0.658576 -0.0407343 0)
(0.498151 -0.0743754 0)
(0.288345 -0.136221 0)
)
;

boundaryField
{
    movingWall
    {
        type            fixedValue;
        value           uniform (1 0 0);
    }
    fixedWalls
    {
        type            noSlip;
    }
    frontAndBack
    {
        type            empty;
    }
}


// ************************************************************************* //
