/*--------------------------------*- C++ -*----------------------------------*\
| =========                 |                                                 |
| \\      /  F ield         | OpenFOAM: The Open Source CFD Toolbox           |
|  \\    /   O peration     | Version:  4.1                                   |
|   \\  /    A nd           | Web:      www.OpenFOAM.org                      |
|    \\/     M anipulation  |                                                 |
\*---------------------------------------------------------------------------*/
FoamFile
{
    version     2.0;
    format      ascii;
    class       volVectorField;
    location    "0.189";
    object      U;
}
// * * * * * * * * * * * * * * * * * * * * * * * * * * * * * * * * * * * * * //

dimensions      [0 1 -1 0 0 0 0];

internalField   nonuniform List<vector> 
6400
(
(8.0334e-06 -7.99833e-06 0)
(3.0325e-05 -1.1653e-05 0)
(4.85954e-05 -8.10066e-06 0)
(5.66648e-05 1.19715e-06 0)
(5.0298e-05 1.42261e-05 0)
(2.7003e-05 2.94103e-05 0)
(-1.44493e-05 4.56023e-05 0)
(-7.43687e-05 6.19879e-05 0)
(-0.000152414 7.79956e-05 0)
(-0.00024779 9.32281e-05 0)
(-0.000359387 0.000107414 0)
(-0.000485884 0.00012037 0)
(-0.000625821 0.00013198 0)
(-0.000777654 0.000142174 0)
(-0.000939795 0.000150916 0)
(-0.00111064 0.000158196 0)
(-0.00128858 0.000164024 0)
(-0.00147204 0.000168421 0)
(-0.00165947 0.00017142 0)
(-0.00184937 0.000173062 0)
(-0.00204028 0.000173392 0)
(-0.00223079 0.000172462 0)
(-0.00241955 0.000170324 0)
(-0.00260527 0.000167035 0)
(-0.00278674 0.000162651 0)
(-0.00296278 0.000157232 0)
(-0.0031323 0.000150837 0)
(-0.00329426 0.000143527 0)
(-0.00344771 0.000135362 0)
(-0.00359173 0.000126404 0)
(-0.0037255 0.000116715 0)
(-0.00384826 0.000106356 0)
(-0.0039593 9.53924e-05 0)
(-0.004058 8.38857e-05 0)
(-0.00414381 7.19007e-05 0)
(-0.00421623 5.95021e-05 0)
(-0.00427485 4.67559e-05 0)
(-0.00431934 3.37286e-05 0)
(-0.00434941 2.04882e-05 0)
(-0.00436487 7.1033e-06 0)
(-0.00436562 -6.35594e-06 0)
(-0.00435159 -1.98184e-05 0)
(-0.00432283 -3.32116e-05 0)
(-0.00427946 -4.64621e-05 0)
(-0.00422166 -5.94952e-05 0)
(-0.00414973 -7.22353e-05 0)
(-0.00406401 -8.46059e-05 0)
(-0.00396496 -9.65296e-05 0)
(-0.00385311 -0.000107929 0)
(-0.00372906 -0.000118725 0)
(-0.00359352 -0.000128841 0)
(-0.00344727 -0.000138199 0)
(-0.00329117 -0.000146722 0)
(-0.00312619 -0.000154334 0)
(-0.00295335 -0.000160961 0)
(-0.00277377 -0.000166531 0)
(-0.00258863 -0.000170974 0)
(-0.0023992 -0.000174226 0)
(-0.00220681 -0.000176223 0)
(-0.00201287 -0.000176908 0)
(-0.00181882 -0.00017623 0)
(-0.00162619 -0.000174144 0)
(-0.00143653 -0.000170612 0)
(-0.00125143 -0.000165607 0)
(-0.00107252 -0.000159112 0)
(-0.000901441 -0.000151125 0)
(-0.000739814 -0.000141661 0)
(-0.000589254 -0.000130755 0)
(-0.000451328 -0.000118472 0)
(-0.000327526 -0.000104912 0)
(-0.000219218 -9.02238e-05 0)
(-0.000127605 -7.46205e-05 0)
(-5.36429e-05 -5.84041e-05 0)
(2.05858e-06 -4.19982e-05 0)
(3.93688e-05 -2.59944e-05 0)
(5.8825e-05 -1.12162e-05 0)
(6.18853e-05 1.19749e-06 0)
(5.12472e-05 9.71182e-06 0)
(3.12815e-05 1.24168e-05 0)
(8.16842e-06 8.10161e-06 0)
(1.18169e-05 -3.02645e-05 0)
(4.56248e-05 -4.51421e-05 0)
(6.53931e-05 -2.70198e-05 0)
(5.68234e-05 1.37719e-05 0)
(9.86005e-06 6.90145e-05 0)
(-8.16324e-05 0.00013258 0)
(-0.000220871 0.000200005 0)
(-0.000408851 0.000268084 0)
(-0.000644923 0.000334544 0)
(-0.000927231 0.000397783 0)
(-0.00125305 0.000456694 0)
(-0.00161903 0.000510526 0)
(-0.0020214 0.000558788 0)
(-0.00245611 0.000601182 0)
(-0.00291892 0.000637552 0)
(-0.00340553 0.000667844 0)
(-0.00391158 0.000692085 0)
(-0.00443276 0.000710359 0)
(-0.00496481 0.000722796 0)
(-0.00550357 0.000729556 0)
(-0.00604497 0.000730826 0)
(-0.0065851 0.000726813 0)
(-0.00712019 0.000717735 0)
(-0.00764662 0.000703823 0)
(-0.00816092 0.000685315 0)
(-0.00865983 0.000662456 0)
(-0.00914024 0.000635493 0)
(-0.00959922 0.000604681 0)
(-0.010034 0.000570273 0)
(-0.0104421 0.000532527 0)
(-0.0108211 0.000491705 0)
(-0.0111689 0.000448067 0)
(-0.0114834 0.000401879 0)
(-0.0117629 0.000353408 0)
(-0.0120058 0.000302925 0)
(-0.0122108 0.000250703 0)
(-0.0123766 0.00019702 0)
(-0.0125023 0.000142157 0)
(-0.0125871 8.64008e-05 0)
(-0.0126306 3.00405e-05 0)
(-0.0126322 -2.66283e-05 0)
(-0.0125921 -8.33058e-05 0)
(-0.0125101 -0.000139687 0)
(-0.0123868 -0.000195463 0)
(-0.0122227 -0.000250319 0)
(-0.0120185 -0.000303938 0)
(-0.0117754 -0.000355998 0)
(-0.0114945 -0.000406174 0)
(-0.0111775 -0.000454141 0)
(-0.010826 -0.000499571 0)
(-0.010442 -0.000542139 0)
(-0.0100278 -0.000581518 0)
(-0.00958579 -0.000617388 0)
(-0.00911871 -0.000649432 0)
(-0.00862945 -0.000677342 0)
(-0.00812116 -0.000700816 0)
(-0.00759716 -0.000719568 0)
(-0.00706101 -0.000733323 0)
(-0.00651644 -0.000741824 0)
(-0.00596735 -0.000744835 0)
(-0.0054178 -0.000742144 0)
(-0.004872 -0.000733566 0)
(-0.00433425 -0.000718953 0)
(-0.00380894 -0.000698195 0)
(-0.00330052 -0.000671229 0)
(-0.00281344 -0.000638053 0)
(-0.00235213 -0.000598734 0)
(-0.0019209 -0.000553433 0)
(-0.00152393 -0.000502422 0)
(-0.00116513 -0.000446124 0)
(-0.000848029 -0.000385155 0)
(-0.000575674 -0.000320393 0)
(-0.000350399 -0.000253066 0)
(-0.000173595 -0.000184879 0)
(-4.53922e-05 -0.000118186 0)
(3.57597e-05 -5.6224e-05 0)
(7.36248e-05 -3.41995e-06 0)
(7.4821e-05 3.42596e-05 0)
(4.9724e-05 4.897e-05 0)
(1.26783e-05 3.11441e-05 0)
(8.46552e-06 -4.87114e-05 0)
(2.82907e-05 -6.49743e-05 0)
(2.11491e-05 -1.93901e-05 0)
(-3.14063e-05 6.84311e-05 0)
(-0.000142817 0.00018339 0)
(-0.00032154 0.00031415 0)
(-0.000572175 0.000452314 0)
(-0.000896273 0.00059173 0)
(-0.00129304 0.000727936 0)
(-0.00175991 0.000857726 0)
(-0.00229296 0.000978832 0)
(-0.00288731 0.00108968 0)
(-0.00353737 0.00118921 0)
(-0.00423706 0.00127675 0)
(-0.00497998 0.00135193 0)
(-0.00575955 0.00141458 0)
(-0.00656909 0.00146472 0)
(-0.00740193 0.00150248 0)
(-0.00825146 0.00152809 0)
(-0.00911118 0.00154187 0)
(-0.00997475 0.00154417 0)
(-0.010836 0.00153541 0)
(-0.011689 0.00151603 0)
(-0.0125281 0.00148649 0)
(-0.0133477 0.00144729 0)
(-0.0141427 0.00139892 0)
(-0.0149081 0.00134192 0)
(-0.0156393 0.00127679 0)
(-0.016332 0.00120408 0)
(-0.0169821 0.00112433 0)
(-0.0175857 0.00103808 0)
(-0.0181396 0.000945885 0)
(-0.0186404 0.000848309 0)
(-0.0190854 0.000745916 0)
(-0.0194721 0.000639277 0)
(-0.0197982 0.000528972 0)
(-0.0200619 0.00041559 0)
(-0.0202617 0.000299726 0)
(-0.0203964 0.000181986 0)
(-0.020465 6.29855e-05 0)
(-0.0204672 -5.66517e-05 0)
(-0.0204027 -0.000176291 0)
(-0.0202717 -0.000295287 0)
(-0.0200748 -0.000412988 0)
(-0.0198129 -0.000528729 0)
(-0.0194874 -0.000641842 0)
(-0.0190998 -0.000751649 0)
(-0.0186523 -0.000857467 0)
(-0.0181471 -0.000958611 0)
(-0.0175872 -0.0010544 0)
(-0.0169758 -0.00114414 0)
(-0.0163162 -0.00122716 0)
(-0.0156125 -0.00130278 0)
(-0.0148689 -0.00137035 0)
(-0.01409 -0.00142923 0)
(-0.0132809 -0.00147878 0)
(-0.0124467 -0.00151843 0)
(-0.0115931 -0.0015476 0)
(-0.0107259 -0.00156576 0)
(-0.00985131 -0.00157245 0)
(-0.00897567 -0.00156723 0)
(-0.00810553 -0.00154973 0)
(-0.00724763 -0.00151967 0)
(-0.00640879 -0.00147685 0)
(-0.00559588 -0.00142117 0)
(-0.00481579 -0.00135266 0)
(-0.00407529 -0.0012715 0)
(-0.00338098 -0.00117806 0)
(-0.00273915 -0.00107295 0)
(-0.00215568 -0.000957098 0)
(-0.00163582 -0.000831804 0)
(-0.00118399 -0.000698894 0)
(-0.000803551 -0.000560873 0)
(-0.0004964 -0.000421148 0)
(-0.00026259 -0.000284333 0)
(-9.97866e-05 -0.000156642 0)
(-2.61686e-06 -4.64045e-05 0)
(3.80553e-05 3.53221e-05 0)
(3.61464e-05 7.4045e-05 0)
(1.02668e-05 5.1279e-05 0)
(-5.63786e-07 -5.7292e-05 0)
(-1.14346e-05 -5.71201e-05 0)
(-6.48242e-05 3.28915e-05 0)
(-0.000180864 0.000184886 0)
(-0.000374538 0.000377184 0)
(-0.000655383 0.000593203 0)
(-0.00102864 0.000820397 0)
(-0.00149605 0.00104937 0)
(-0.00205658 0.00127317 0)
(-0.00270703 0.00148666 0)
(-0.00344254 0.00168616 0)
(-0.00425698 0.00186903 0)
(-0.00514327 0.00203345 0)
(-0.00609368 0.00217824 0)
(-0.00709999 0.00230268 0)
(-0.00815372 0.00240643 0)
(-0.00924622 0.00248944 0)
(-0.0103688 0.00255184 0)
(-0.0115127 0.00259399 0)
(-0.0126696 0.00261634 0)
(-0.013831 0.00261946 0)
(-0.0149887 0.002604 0)
(-0.016135 0.00257067 0)
(-0.0172622 0.00252024 0)
(-0.018363 0.00245351 0)
(-0.0194306 0.0023713 0)
(-0.0204583 0.00227449 0)
(-0.0214399 0.00216396 0)
(-0.0223697 0.00204058 0)
(-0.0232421 0.00190529 0)
(-0.0240522 0.00175899 0)
(-0.0247953 0.00160263 0)
(-0.0254672 0.00143715 0)
(-0.0260641 0.00126352 0)
(-0.0265827 0.0010827 0)
(-0.0270199 0.000895673 0)
(-0.0273733 0.000703449 0)
(-0.0276409 0.000507036 0)
(-0.0278211 0.000307465 0)
(-0.0279126 0.000105779 0)
(-0.027915 -9.69595e-05 0)
(-0.0278279 -0.000299675 0)
(-0.0276516 -0.000501273 0)
(-0.0273869 -0.000700647 0)
(-0.0270351 -0.000896675 0)
(-0.0265979 -0.00108822 0)
(-0.0260775 -0.00127415 0)
(-0.0254767 -0.00145329 0)
(-0.0247988 -0.00162451 0)
(-0.0240475 -0.00178664 0)
(-0.023227 -0.00193854 0)
(-0.0223422 -0.00207906 0)
(-0.0213981 -0.00220709 0)
(-0.0204005 -0.00232151 0)
(-0.0193555 -0.00242126 0)
(-0.0182699 -0.00250531 0)
(-0.0171505 -0.00257267 0)
(-0.0160048 -0.00262241 0)
(-0.0148406 -0.00265367 0)
(-0.013666 -0.00266566 0)
(-0.0124894 -0.00265771 0)
(-0.0113194 -0.00262924 0)
(-0.010165 -0.0025798 0)
(-0.00903497 -0.00250911 0)
(-0.00793838 -0.00241704 0)
(-0.00688414 -0.00230372 0)
(-0.00588105 -0.0021695 0)
(-0.00493763 -0.00201508 0)
(-0.00406194 -0.00184155 0)
(-0.00326147 -0.00165049 0)
(-0.00254287 -0.00144412 0)
(-0.00191172 -0.00122546 0)
(-0.00137218 -0.000998582 0)
(-0.000926633 -0.000768926 0)
(-0.000575211 -0.000543689 0)
(-0.00031521 -0.00033237 0)
(-0.000140443 -0.000147428 0)
(-4.05126e-05 -5.08484e-06 0)
(2.09289e-07 7.37434e-05 0)
(2.19238e-06 6.25212e-05 0)
(-1.33271e-05 -5.18441e-05 0)
(-6.56449e-05 -1.16059e-05 0)
(-0.00017813 0.000143258 0)
(-0.000371145 0.000378211 0)
(-0.000659913 0.000665798 0)
(-0.00105404 0.000984562 0)
(-0.00155869 0.00131792 0)
(-0.00217535 0.00165318 0)
(-0.00290252 0.00198073 0)
(-0.00373632 0.00229338 0)
(-0.00467099 0.0025858 0)
(-0.00569932 0.00285413 0)
(-0.00681296 0.00309564 0)
(-0.00800277 0.00330848 0)
(-0.00925901 0.0034915 0)
(-0.0105715 0.00364409 0)
(-0.01193 0.00376606 0)
(-0.013324 0.00385755 0)
(-0.014743 0.00391897 0)
(-0.0161768 0.00395095 0)
(-0.0176152 0.00395427 0)
(-0.0190484 0.00392984 0)
(-0.0204667 0.0038787 0)
(-0.0218608 0.00380194 0)
(-0.023222 0.00370073 0)
(-0.0245417 0.00357632 0)
(-0.0258118 0.00342996 0)
(-0.0270248 0.00326296 0)
(-0.0281735 0.00307665 0)
(-0.0292512 0.00287241 0)
(-0.0302517 0.0026516 0)
(-0.0311693 0.00241565 0)
(-0.0319989 0.00216597 0)
(-0.0327357 0.00190401 0)
(-0.0333757 0.00163123 0)
(-0.0339152 0.00134913 0)
(-0.0343511 0.00105922 0)
(-0.034681 0.000763015 0)
(-0.034903 0.00046208 0)
(-0.0350155 0.000157992 0)
(-0.0350178 -0.000147649 0)
(-0.0349097 -0.000453217 0)
(-0.0346915 -0.000757066 0)
(-0.0343643 -0.00105753 0)
(-0.0339295 -0.00135291 0)
(-0.0333893 -0.00164151 0)
(-0.0327465 -0.0019216 0)
(-0.0320045 -0.00219147 0)
(-0.0311673 -0.00244938 0)
(-0.0302396 -0.00269361 0)
(-0.0292264 -0.00292242 0)
(-0.0281338 -0.00313413 0)
(-0.026968 -0.00332706 0)
(-0.025736 -0.00349956 0)
(-0.0244455 -0.00365006 0)
(-0.0231044 -0.00377703 0)
(-0.0217213 -0.003879 0)
(-0.0203054 -0.00395463 0)
(-0.018866 -0.00400264 0)
(-0.0174131 -0.00402193 0)
(-0.0159569 -0.00401149 0)
(-0.0145078 -0.00397053 0)
(-0.0130765 -0.00389844 0)
(-0.0116739 -0.00379484 0)
(-0.0103107 -0.00365965 0)
(-0.00899763 -0.0034931 0)
(-0.00774527 -0.00329583 0)
(-0.00656374 -0.00306894 0)
(-0.00546265 -0.00281414 0)
(-0.00445086 -0.00253382 0)
(-0.00353622 -0.00223128 0)
(-0.00272533 -0.00191097 0)
(-0.00202315 -0.00157872 0)
(-0.00143263 -0.00124218 0)
(-0.000954243 -0.000911316 0)
(-0.000585387 -0.000598967 0)
(-0.000319794 -0.000321655 0)
(-0.000146823 -0.000100441 0)
(-5.04144e-05 3.80537e-05 0)
(-9.66888e-06 6.06808e-05 0)
(-2.83541e-05 -2.98378e-05 0)
(-0.00012866 7.79273e-05 0)
(-0.00030838 0.000320649 0)
(-0.000587292 0.000658716 0)
(-0.000979982 0.00105991 0)
(-0.00149535 0.00149848 0)
(-0.00213788 0.00195414 0)
(-0.00290834 0.00241103 0)
(-0.00380451 0.00285692 0)
(-0.00482168 0.00328245 0)
(-0.00595315 0.00368059 0)
(-0.00719068 0.00404613 0)
(-0.00852477 0.00437531 0)
(-0.00994502 0.00466553 0)
(-0.0114403 0.0049151 0)
(-0.0129992 0.00512307 0)
(-0.0146097 0.00528907 0)
(-0.0162599 0.00541318 0)
(-0.0179378 0.00549589 0)
(-0.0196316 0.00553796 0)
(-0.0213295 0.00554041 0)
(-0.0230201 0.00550443 0)
(-0.0246922 0.00543139 0)
(-0.0263353 0.00532278 0)
(-0.0279388 0.00518018 0)
(-0.0294929 0.00500528 0)
(-0.0309883 0.00479982 0)
(-0.0324161 0.00456559 0)
(-0.0337679 0.00430445 0)
(-0.0350359 0.00401827 0)
(-0.0362129 0.003709 0)
(-0.0372921 0.00337857 0)
(-0.0382677 0.00302899 0)
(-0.0391341 0.00266227 0)
(-0.0398864 0.00228046 0)
(-0.0405205 0.00188565 0)
(-0.0410327 0.00147995 0)
(-0.0414202 0.00106549 0)
(-0.0416807 0.000644463 0)
(-0.0418126 0.000219066 0)
(-0.0418148 -0.000208459 0)
(-0.0416873 -0.000635838 0)
(-0.0414304 -0.00106077 0)
(-0.0410452 -0.00148092 0)
(-0.0405336 -0.00189394 0)
(-0.0398982 -0.00229744 0)
(-0.0391422 -0.00268904 0)
(-0.0382695 -0.00306633 0)
(-0.037285 -0.00342691 0)
(-0.0361939 -0.00376836 0)
(-0.0350024 -0.00408832 0)
(-0.0337172 -0.00438443 0)
(-0.032346 -0.00465436 0)
(-0.0308967 -0.00489588 0)
(-0.0293781 -0.00510677 0)
(-0.0277998 -0.00528496 0)
(-0.0261716 -0.00542845 0)
(-0.024504 -0.00553539 0)
(-0.0228081 -0.00560406 0)
(-0.0210952 -0.00563297 0)
(-0.0193772 -0.00562079 0)
(-0.0176662 -0.00556647 0)
(-0.0159745 -0.00546925 0)
(-0.0143144 -0.00532868 0)
(-0.0126985 -0.00514472 0)
(-0.011139 -0.00491779 0)
(-0.00964802 -0.00464887 0)
(-0.00823704 -0.00433956 0)
(-0.00691704 -0.00399227 0)
(-0.00569814 -0.00361035 0)
(-0.0045893 -0.00319833 0)
(-0.00359811 -0.00276216 0)
(-0.0027304 -0.00230958 0)
(-0.00198983 -0.00185055 0)
(-0.00137752 -0.00139777 0)
(-0.000891428 -0.000967356 0)
(-0.000525826 -0.000579593 0)
(-0.000270595 -0.000259847 0)
(-0.000110114 -3.95127e-05 0)
(-2.38644e-05 4.31612e-05 0)
(-4.46208e-05 1.01292e-05 0)
(-0.000196534 0.000215282 0)
(-0.000448252 0.00057071 0)
(-0.000818563 0.00103317 0)
(-0.00132087 0.00156669 0)
(-0.0019628 0.00214194 0)
(-0.00274767 0.00273534 0)
(-0.00367518 0.00332814 0)
(-0.00474204 0.0039056 0)
(-0.00594255 0.00445627 0)
(-0.00726901 0.00497138 0)
(-0.00871209 0.00544432 0)
(-0.0102612 0.00587025 0)
(-0.0119047 0.00624575 0)
(-0.0136304 0.00656852 0)
(-0.0154254 0.00683723 0)
(-0.0172765 0.00705127 0)
(-0.0191705 0.00721066 0)
(-0.0210939 0.0073159 0)
(-0.0230334 0.00736791 0)
(-0.024976 0.00736793 0)
(-0.0269089 0.00731747 0)
(-0.0288196 0.00721825 0)
(-0.0306961 0.00707218 0)
(-0.0325266 0.00688131 0)
(-0.0343001 0.0066478 0)
(-0.036006 0.00637394 0)
(-0.0376343 0.00606207 0)
(-0.0391755 0.00571462 0)
(-0.0406209 0.00533406 0)
(-0.0419623 0.00492294 0)
(-0.0431921 0.00448384 0)
(-0.0443036 0.00401939 0)
(-0.0452904 0.00353227 0)
(-0.0461473 0.00302519 0)
(-0.0468693 0.00250091 0)
(-0.0474525 0.00196224 0)
(-0.0478936 0.00141201 0)
(-0.04819 0.000853115 0)
(-0.0483398 0.000288479 0)
(-0.0483421 -0.000278926 0)
(-0.0481966 -0.00084609 0)
(-0.0479038 -0.00140996 0)
(-0.0474649 -0.00196746 0)
(-0.0468821 -0.00251546 0)
(-0.0461583 -0.00305082 0)
(-0.0452971 -0.00357038 0)
(-0.0443031 -0.00407097 0)
(-0.0431816 -0.00454942 0)
(-0.0419387 -0.00500257 0)
(-0.0405812 -0.00542728 0)
(-0.0391169 -0.00582045 0)
(-0.0375542 -0.00617906 0)
(-0.0359022 -0.00650014 0)
(-0.0341709 -0.00678084 0)
(-0.0323708 -0.00701843 0)
(-0.0305131 -0.00721032 0)
(-0.0286097 -0.0073541 0)
(-0.0266728 -0.00744759 0)
(-0.0247154 -0.00748883 0)
(-0.0227505 -0.00747619 0)
(-0.0207918 -0.00740832 0)
(-0.0188531 -0.00728431 0)
(-0.0169481 -0.00710365 0)
(-0.0150907 -0.0068664 0)
(-0.0132947 -0.00657319 0)
(-0.0115734 -0.00622537 0)
(-0.00993973 -0.00582514 0)
(-0.00840583 -0.0053757 0)
(-0.00698299 -0.00488141 0)
(-0.00568129 -0.00434811 0)
(-0.00450933 -0.00378335 0)
(-0.00347389 -0.0031968 0)
(-0.00257959 -0.00260068 0)
(-0.00182846 -0.00201037 0)
(-0.00121943 -0.00144501 0)
(-0.000747795 -0.000928257 0)
(-0.000404511 -0.000489155 0)
(-0.000174945 -0.000162918 0)
(-3.93688e-05 8.48647e-06 0)
(-6.1443e-05 6.86858e-05 0)
(-0.000266603 0.00040243 0)
(-0.000592711 0.000896636 0)
(-0.00105742 0.00150562 0)
(-0.00167264 0.0021906 0)
(-0.00244436 0.00291935 0)
(-0.00337436 0.0036655 0)
(-0.00446092 0.00440772 0)
(-0.00569948 0.00512898 0)
(-0.00708313 0.00581586 0)
(-0.00860302 0.00645789 0)
(-0.0102487 0.00704711 0)
(-0.0120085 0.00757756 0)
(-0.0138697 0.00804496 0)
(-0.0158187 0.0084464 0)
(-0.0178416 0.0087801 0)
(-0.0199241 0.00904521 0)
(-0.0220514 0.00924165 0)
(-0.0242092 0.00936994 0)
(-0.0263827 0.00943114 0)
(-0.0285578 0.00942671 0)
(-0.0307203 0.0093585 0)
(-0.0328565 0.00922861 0)
(-0.0349533 0.00903939 0)
(-0.0369978 0.00879338 0)
(-0.0389777 0.0084933 0)
(-0.0408815 0.008142 0)
(-0.0426982 0.00774242 0)
(-0.0444172 0.00729764 0)
(-0.0460289 0.00681078 0)
(-0.0475243 0.00628506 0)
(-0.0488951 0.00572377 0)
(-0.0501337 0.00513024 0)
(-0.0512334 0.00450788 0)
(-0.052188 0.00386016 0)
(-0.0529923 0.00319057 0)
(-0.0536419 0.00250269 0)
(-0.0541332 0.00180015 0)
(-0.0544632 0.00108661 0)
(-0.0546301 0.000365816 0)
(-0.0546326 -0.000358454 0)
(-0.0544705 -0.00108237 0)
(-0.0541443 -0.00180204 0)
(-0.0536556 -0.00251354 0)
(-0.0530065 -0.00321292 0)
(-0.0522003 -0.00389617 0)
(-0.0512412 -0.00455929 0)
(-0.050134 -0.00519826 0)
(-0.0488846 -0.00580904 0)
(-0.0474999 -0.00638763 0)
(-0.0459872 -0.00693008 0)
(-0.0443552 -0.00743248 0)
(-0.0426131 -0.00789098 0)
(-0.040771 -0.00830187 0)
(-0.0388399 -0.00866156 0)
(-0.0368312 -0.0089666 0)
(-0.0347573 -0.00921378 0)
(-0.0326313 -0.00940008 0)
(-0.0304666 -0.00952279 0)
(-0.0282774 -0.0095795 0)
(-0.026078 -0.00956818 0)
(-0.0238834 -0.00948724 0)
(-0.0217085 -0.00933558 0)
(-0.0195687 -0.00911267 0)
(-0.0174789 -0.00881863 0)
(-0.0154542 -0.00845437 0)
(-0.0135092 -0.00802166 0)
(-0.0116581 -0.00752332 0)
(-0.00991414 -0.00696337 0)
(-0.00828981 -0.00634728 0)
(-0.00679628 -0.00568218 0)
(-0.00544325 -0.00497725 0)
(-0.00423861 -0.00424404 0)
(-0.00318811 -0.00349697 0)
(-0.00229497 -0.0027539 0)
(-0.00155942 -0.0020367 0)
(-0.000978123 -0.00137197 0)
(-0.000543503 -0.000791787 0)
(-0.000242219 -0.000334297 0)
(-5.54902e-05 -4.40419e-05 0)
(-7.83771e-05 0.000145957 0)
(-0.000337126 0.000640085 0)
(-0.000738394 0.00129987 0)
(-0.00129872 0.00207813 0)
(-0.00202837 0.00293407 0)
(-0.00293149 0.00383321 0)
(-0.00400804 0.00474686 0)
(-0.00525465 0.00565152 0)
(-0.00666525 0.0065281 0)
(-0.00823158 0.00736137 0)
(-0.00994349 0.0081393 0)
(-0.0117893 0.0088526 0)
(-0.0137563 0.00949424 0)
(-0.0158304 0.0100591 0)
(-0.0179972 0.0105436 0)
(-0.0202414 0.0109456 0)
(-0.0225475 0.011264 0)
(-0.0248999 0.0114984 0)
(-0.0272829 0.0116496 0)
(-0.0296807 0.0117187 0)
(-0.0320779 0.0117073 0)
(-0.0344594 0.0116178 0)
(-0.0368103 0.0114525 0)
(-0.0391164 0.0112144 0)
(-0.0413638 0.0109064 0)
(-0.0435393 0.0105319 0)
(-0.0456303 0.0100943 0)
(-0.0476249 0.00959728 0)
(-0.0495117 0.00904456 0)
(-0.0512803 0.00843998 0)
(-0.0529209 0.00778749 0)
(-0.0544245 0.00709114 0)
(-0.0557829 0.00635505 0)
(-0.0569887 0.0055834 0)
(-0.0580354 0.00478047 0)
(-0.0589173 0.0039506 0)
(-0.0596295 0.00309819 0)
(-0.0601681 0.00222771 0)
(-0.06053 0.00134371 0)
(-0.0607131 0.000450802 0)
(-0.0607162 -0.00044635 0)
(-0.0605388 -0.00134301 0)
(-0.0601818 -0.00223439 0)
(-0.0596465 -0.00311565 0)
(-0.0589356 -0.0039819 0)
(-0.0580525 -0.00482822 0)
(-0.0570016 -0.00564968 0)
(-0.0557884 -0.00644131 0)
(-0.0544192 -0.00719818 0)
(-0.0529012 -0.00791537 0)
(-0.0512427 -0.008588 0)
(-0.0494529 -0.00921129 0)
(-0.0475418 -0.00978055 0)
(-0.0455203 -0.0102912 0)
(-0.0434002 -0.0107389 0)
(-0.0411941 -0.0111194 0)
(-0.0389153 -0.0114288 0)
(-0.0365778 -0.0116634 0)
(-0.0341962 -0.01182 0)
(-0.0317856 -0.0118957 0)
(-0.0293619 -0.0118881 0)
(-0.0269408 -0.0117952 0)
(-0.0245388 -0.0116157 0)
(-0.0221721 -0.0113492 0)
(-0.0198571 -0.0109958 0)
(-0.0176099 -0.0105568 0)
(-0.0154464 -0.0100342 0)
(-0.0133819 -0.00943168 0)
(-0.0114309 -0.00875399 0)
(-0.009607 -0.0080077 0)
(-0.00792251 -0.00720127 0)
(-0.00638835 -0.00634543 0)
(-0.00501365 -0.00545356 0)
(-0.00380549 -0.00454213 0)
(-0.00276849 -0.00363125 0)
(-0.00190443 -0.0027452 0)
(-0.00121162 -0.00191309 0)
(-0.000684167 -0.00116942 0)
(-0.000310169 -0.000554521 0)
(-7.17775e-05 -0.000114611 0)
(-9.51472e-05 0.000241752 0)
(-0.000407007 0.00092813 0)
(-0.000883136 0.00178064 0)
(-0.00153906 0.00275133 0)
(-0.00238339 0.00379802 0)
(-0.00341829 0.00488455 0)
(-0.00464178 0.00598041 0)
(-0.00604861 0.00706022 0)
(-0.00763107 0.00810316 0)
(-0.00937933 0.00909238 0)
(-0.0112819 0.0100144 0)
(-0.0133258 0.0108588 0)
(-0.0154969 0.0116174 0)
(-0.0177802 0.0122844 0)
(-0.0201601 0.0128556 0)
(-0.0226201 0.0133284 0)
(-0.0251438 0.0137013 0)
(-0.0277144 0.0139742 0)
(-0.0303151 0.0141475 0)
(-0.0329291 0.0142226 0)
(-0.03554 0.0142015 0)
(-0.0381316 0.0140866 0)
(-0.0406881 0.0138811 0)
(-0.0431943 0.0135881 0)
(-0.0456354 0.0132113 0)
(-0.0479973 0.0127546 0)
(-0.0502665 0.0122221 0)
(-0.0524303 0.0116182 0)
(-0.0544765 0.0109473 0)
(-0.056394 0.0102141 0)
(-0.0581723 0.00942315 0)
(-0.0598017 0.00857948 0)
(-0.0612736 0.00768797 0)
(-0.0625801 0.00675369 0)
(-0.063714 0.00578177 0)
(-0.0646693 0.00477743 0)
(-0.065441 0.00374598 0)
(-0.0660246 0.00269282 0)
(-0.0664171 0.00162341 0)
(-0.0666159 0.000543315 0)
(-0.0666199 -0.000541851 0)
(-0.0664287 -0.00162638 0)
(-0.066043 -0.00270452 0)
(-0.0654643 -0.00377043 0)
(-0.0646955 -0.00481823 0)
(-0.0637402 -0.00584203 0)
(-0.0626032 -0.00683586 0)
(-0.0612902 -0.0077938 0)
(-0.059808 -0.0087099 0)
(-0.0581643 -0.00957826 0)
(-0.0563681 -0.0103931 0)
(-0.0544289 -0.0111485 0)
(-0.0523576 -0.0118391 0)
(-0.0501659 -0.0124592 0)
(-0.0478662 -0.0130038 0)
(-0.0454721 -0.0134677 0)
(-0.0429976 -0.0138464 0)
(-0.0404578 -0.0141354 0)
(-0.0378682 -0.0143309 0)
(-0.0352451 -0.0144295 0)
(-0.0326052 -0.0144283 0)
(-0.0299655 -0.0143251 0)
(-0.0273433 -0.0141184 0)
(-0.0247562 -0.0138077 0)
(-0.0222216 -0.0133932 0)
(-0.0197568 -0.0128765 0)
(-0.0173788 -0.01226 0)
(-0.0151041 -0.0115481 0)
(-0.0129483 -0.0107462 0)
(-0.0109263 -0.00986217 0)
(-0.00905164 -0.00890559 0)
(-0.00733649 -0.00788871 0)
(-0.00579138 -0.0068266 0)
(-0.00442486 -0.00573763 0)
(-0.00324317 -0.0046439 0)
(-0.00224979 -0.00357182 0)
(-0.00144488 -0.00255255 0)
(-0.000824319 -0.00162251 0)
(-0.000377682 -0.000823627 0)
(-8.79493e-05 -0.000203086 0)
(-0.000111593 0.000355697 0)
(-0.000475603 0.00126592 0)
(-0.00102562 0.00233839 0)
(-0.00177632 0.00352486 0)
(-0.00273471 0.00478232 0)
(-0.00390094 0.0060734 0)
(-0.00527095 0.00736615 0)
(-0.00683757 0.00863371 0)
(-0.00859122 0.00985377 0)
(-0.0105205 0.0110081 0)
(-0.0126122 0.0120819 0)
(-0.0148522 0.0130638 0)
(-0.0172251 0.0139445 0)
(-0.0197145 0.0147177 0)
(-0.0223037 0.0153784 0)
(-0.0249752 0.0159237 0)
(-0.0277114 0.016352 0)
(-0.0304945 0.0166629 0)
(-0.0333067 0.0168571 0)
(-0.0361304 0.0169359 0)
(-0.038948 0.0169018 0)
(-0.0417424 0.0167576 0)
(-0.0444971 0.0165066 0)
(-0.0471957 0.0161528 0)
(-0.0498228 0.0157003 0)
(-0.0523633 0.0151537 0)
(-0.0548031 0.0145179 0)
(-0.0571287 0.0137979 0)
(-0.0593272 0.0129989 0)
(-0.0613868 0.0121263 0)
(-0.0632965 0.0111858 0)
(-0.065046 0.0101831 0)
(-0.0666261 0.00912392 0)
(-0.0680285 0.00801429 0)
(-0.0692457 0.00686026 0)
(-0.0702712 0.005668 0)
(-0.0710997 0.00444377 0)
(-0.0717266 0.00319393 0)
(-0.0721484 0.00192495 0)
(-0.0723628 0.000643386 0)
(-0.0723683 -0.00064413 0)
(-0.0721645 -0.00193087 0)
(-0.0717521 -0.00321003 0)
(-0.071133 -0.00447474 0)
(-0.0703098 -0.00571807 0)
(-0.0692866 -0.00693306 0)
(-0.0680683 -0.00811269 0)
(-0.066661 -0.00924998 0)
(-0.0650719 -0.0103379 0)
(-0.0633091 -0.0113696 0)
(-0.061382 -0.0123381 0)
(-0.0593008 -0.0132368 0)
(-0.0570769 -0.0140589 0)
(-0.0547226 -0.0147982 0)
(-0.0522512 -0.0154484 0)
(-0.0496768 -0.0160038 0)
(-0.0470145 -0.0164588 0)
(-0.0442801 -0.0168084 0)
(-0.04149 -0.0170481 0)
(-0.0386613 -0.0171738 0)
(-0.0358119 -0.0171823 0)
(-0.0329596 -0.0170711 0)
(-0.030123 -0.0168383 0)
(-0.0273205 -0.0164835 0)
(-0.0245707 -0.0160069 0)
(-0.021892 -0.0154102 0)
(-0.0193026 -0.0146966 0)
(-0.01682 -0.0138706 0)
(-0.0144613 -0.012939 0)
(-0.0122423 -0.0119101 0)
(-0.0101781 -0.0107951 0)
(-0.00828227 -0.00960736 0)
(-0.00656676 -0.00836368 0)
(-0.00504176 -0.00708405 0)
(-0.00371525 -0.00579238 0)
(-0.00259258 -0.00451685 0)
(-0.0016758 -0.00329034 0)
(-0.000962646 -0.00215076 0)
(-0.00044411 -0.00114113 0)
(-0.000103843 -0.000309146 0)
(-0.000127632 0.000487321 0)
(-0.000542578 0.00165252 0)
(-0.00116514 0.00297204 0)
(-0.00200931 0.00439773 0)
(-0.00308056 0.00588614 0)
(-0.00437708 0.00739905 0)
(-0.00589268 0.00890346 0)
(-0.00761817 0.0103713 0)
(-0.00954206 0.0117791 0)
(-0.0116511 0.0131074 0)
(-0.0139308 0.0143404 0)
(-0.0163651 0.0154656 0)
(-0.0189375 0.0164732 0)
(-0.0216304 0.0173559 0)
(-0.0244258 0.0181085 0)
(-0.0273052 0.0187277 0)
(-0.0302498 0.0192116 0)
(-0.0332409 0.0195598 0)
(-0.0362597 0.019773 0)
(-0.0392875 0.019853 0)
(-0.042306 0.0198023 0)
(-0.0452973 0.0196241 0)
(-0.0482438 0.0193225 0)
(-0.0511285 0.0189017 0)
(-0.0539352 0.0183667 0)
(-0.056648 0.0177226 0)
(-0.059252 0.0169751 0)
(-0.0617331 0.0161299 0)
(-0.064078 0.0151932 0)
(-0.0662741 0.0141711 0)
(-0.0683099 0.0130702 0)
(-0.0701746 0.0118971 0)
(-0.0718586 0.0106585 0)
(-0.073353 0.00936141 0)
(-0.0746501 0.00801276 0)
(-0.0757432 0.00661975 0)
(-0.0766264 0.00518964 0)
(-0.0772951 0.00372983 0)
(-0.0777457 0.00224782 0)
(-0.0779755 0.000751201 0)
(-0.0779831 -0.000752303 0)
(-0.077768 -0.00225489 0)
(-0.077331 -0.00374868 0)
(-0.0766739 -0.00522569 0)
(-0.0757997 -0.0066779 0)
(-0.0747123 -0.00809721 0)
(-0.0734171 -0.00947552 0)
(-0.0719204 -0.0108047 0)
(-0.0702297 -0.0120767 0)
(-0.0683534 -0.0132834 0)
(-0.0663014 -0.014417 0)
(-0.0640845 -0.0154695 0)
(-0.0617145 -0.0164334 0)
(-0.0592042 -0.0173013 0)
(-0.0565677 -0.018066 0)
(-0.0538197 -0.0187209 0)
(-0.050976 -0.0192596 0)
(-0.0480531 -0.0196762 0)
(-0.0450685 -0.0199656 0)
(-0.0420401 -0.0201231 0)
(-0.0389864 -0.020145 0)
(-0.0359265 -0.0200284 0)
(-0.0328798 -0.0197713 0)
(-0.0298658 -0.0193729 0)
(-0.0269041 -0.0188336 0)
(-0.0240144 -0.0181555 0)
(-0.0212158 -0.0173418 0)
(-0.0185272 -0.016398 0)
(-0.0159667 -0.0153312 0)
(-0.0135518 -0.014151 0)
(-0.0112986 -0.0128694 0)
(-0.00922244 -0.0115014 0)
(-0.00733678 -0.0100648 0)
(-0.00565354 -0.00858141 0)
(-0.00418255 -0.00707653 0)
(-0.00293111 -0.00557992 0)
(-0.00190322 -0.00412585 0)
(-0.00109846 -0.00275336 0)
(-0.000509126 -0.00150625 0)
(-0.000119378 -0.000432375 0)
(-0.000143234 0.00063612 0)
(-0.000607807 0.00208684 0)
(-0.00130139 0.00368027 0)
(-0.00223744 0.0053686 0)
(-0.00342006 0.0071082 0)
(-0.00484547 0.00886035 0)
(-0.0065054 0.0105913 0)
(-0.00838856 0.012272 0)
(-0.0104815 0.0138781 0)
(-0.0127692 0.0153891 0)
(-0.0152353 0.0167884 0)
(-0.0178624 0.0180627 0)
(-0.0206325 0.0192014 0)
(-0.0235266 0.0201968 0)
(-0.0265256 0.0210432 0)
(-0.0296099 0.0217369 0)
(-0.0327596 0.0222762 0)
(-0.0359549 0.0226605 0)
(-0.0391761 0.0228908 0)
(-0.0424038 0.0229688 0)
(-0.0456185 0.0228977 0)
(-0.0488017 0.022681 0)
(-0.0519349 0.0223231 0)
(-0.0550004 0.0218292 0)
(-0.0579812 0.0212047 0)
(-0.060861 0.0204555 0)
(-0.063624 0.0195881 0)
(-0.0662556 0.0186089 0)
(-0.0687418 0.017525 0)
(-0.0710697 0.0163435 0)
(-0.0732272 0.0150718 0)
(-0.075203 0.0137174 0)
(-0.0769872 0.0122882 0)
(-0.0785705 0.0107919 0)
(-0.0799449 0.00923663 0)
(-0.0811033 0.00763059 0)
(-0.0820397 0.0059821 0)
(-0.0827492 0.00429962 0)
(-0.083228 0.00259171 0)
(-0.0834734 0.000867089 0)
(-0.0834838 -0.000865427 0)
(-0.0832588 -0.00259691 0)
(-0.082799 -0.00431833 0)
(-0.0821064 -0.00602058 0)
(-0.081184 -0.00769446 0)
(-0.080036 -0.00933074 0)
(-0.0786678 -0.0109201 0)
(-0.077086 -0.0124534 0)
(-0.0752983 -0.0139212 0)
(-0.0733136 -0.0153145 0)
(-0.071142 -0.0166241 0)
(-0.0687947 -0.0178411 0)
(-0.066284 -0.0189567 0)
(-0.0636234 -0.0199627 0)
(-0.0608273 -0.0208508 0)
(-0.0579112 -0.0216133 0)
(-0.0548914 -0.0222431 0)
(-0.0517854 -0.0227334 0)
(-0.0486111 -0.0230784 0)
(-0.0453874 -0.0232727 0)
(-0.0421338 -0.0233121 0)
(-0.0388701 -0.0231932 0)
(-0.0356166 -0.0229138 0)
(-0.0323941 -0.022473 0)
(-0.0292231 -0.0218711 0)
(-0.0261244 -0.0211103 0)
(-0.0231182 -0.0201944 0)
(-0.0202248 -0.019129 0)
(-0.0174635 -0.0179222 0)
(-0.0148532 -0.0165843 0)
(-0.0124116 -0.0151284 0)
(-0.0101554 -0.0135705 0)
(-0.00809998 -0.0119298 0)
(-0.00625894 -0.0102293 0)
(-0.00464408 -0.00849582 0)
(-0.00326467 -0.00676028 0)
(-0.0021267 -0.00505812 0)
(-0.00123151 -0.00342929 0)
(-0.000572627 -0.00191807 0)
(-0.000134529 -0.000572324 0)
(-0.000158404 0.000801593 0)
(-0.000671303 0.00256775 0)
(-0.00143434 0.00446164 0)
(-0.00246062 0.00643591 0)
(-0.00375296 0.00844699 0)
(-0.0053057 0.0104559 0)
(-0.0071085 0.0124282 0)
(-0.00914797 0.0143345 0)
(-0.0114087 0.0161494 0)
(-0.0138736 0.0178519 0)
(-0.0165248 0.0194245 0)
(-0.0193432 0.0208533 0)
(-0.0223093 0.0221272 0)
(-0.0254029 0.023238 0)
(-0.0286033 0.0241798 0)
(-0.03189 0.0249487 0)
(-0.0352421 0.0255428 0)
(-0.0386386 0.0259618 0)
(-0.042059 0.0262066 0)
(-0.0454827 0.0262795 0)
(-0.0488899 0.0261837 0)
(-0.0522608 0.0259236 0)
(-0.0555765 0.025504 0)
(-0.0588185 0.0249306 0)
(-0.0619691 0.0242097 0)
(-0.0650113 0.0233478 0)
(-0.0679289 0.0223522 0)
(-0.0707067 0.0212304 0)
(-0.0733302 0.0199901 0)
(-0.0757859 0.0186394 0)
(-0.0780614 0.0171868 0)
(-0.080145 0.0156406 0)
(-0.0820264 0.0140097 0)
(-0.083696 0.0123031 0)
(-0.0851455 0.0105297 0)
(-0.0863675 0.00869887 0)
(-0.0873559 0.00682001 0)
(-0.0881054 0.00490267 0)
(-0.0886123 0.00295656 0)
(-0.0888735 0.000991515 0)
(-0.0888876 -0.000982499 0)
(-0.0886539 -0.00295539 0)
(-0.0881733 -0.00491695 0)
(-0.0874475 -0.00685688 0)
(-0.0864797 -0.00876479 0)
(-0.0852742 -0.0106303 0)
(-0.0838366 -0.0124428 0)