/*--------------------------------*- C++ -*----------------------------------*\
| =========                 |                                                 |
| \\      /  F ield         | OpenFOAM: The Open Source CFD Toolbox           |
|  \\    /   O peration     | Version:  4.1                                   |
|   \\  /    A nd           | Web:      www.OpenFOAM.org                      |
|    \\/     M anipulation  |                                                 |
\*---------------------------------------------------------------------------*/
FoamFile
{
    version     2.0;
    format      ascii;
    class       volVectorField;
    location    "0.0124";
    object      U;
}
// * * * * * * * * * * * * * * * * * * * * * * * * * * * * * * * * * * * * * //

dimensions      [0 1 -1 0 0 0 0];

internalField   nonuniform List<vector> 
441
(
(0.00349023 -0.00530355 0)
(0.00748046 -0.00351431 0)
(-0.000879085 -2.74231e-165 0)
(0.00145412 -2.03679e-266 0)
(-0.0123109 -0.00581726 0)
(-0.00145412 -2.51097e-232 0)
(-1.16774e-202 -3.21129e-203 0)
(-8.02572e-204 -3.86771e-228 0)
(-1.29829e-212 -1.62642e-213 0)
(-0.004652 7.14e-266 0)
(-0.0540658 0.0186063 0)
(-0.0701081 0.0103689 0)
(-0.0819473 0.00526685 0)
(-0.0780171 0.0015186 0)
(-0.0720363 -9.85027e-05 0)
(-0.0587031 -0.00138549 0)
(-0.0455001 -0.00161209 0)
(-0.0292271 -0.00208165 0)
(-0.014843 -0.00118 0)
(-0.00402626 -0.000540279 0)
(0.00261588 0.00167577 0)
(0.00257485 -0.00540494 0)
(-0.00736744 0.0080035 0)
(-0.0352147 0.00770331 0)
(-0.0629203 0.0129141 0)
(-0.0992763 0.00797033 0)
(-0.12729 -0.00760399 0)
(-0.150754 -0.00111194 0)
(-0.171357 0.000835688 0)
(-0.188324 0.00907648 0)
(-0.20733 0.0478095 0)
(-0.221108 0.0452436 0)
(-0.218149 0.0178622 0)
(-0.21424 0.00222705 0)
(-0.195795 -0.0117818 0)
(-0.174497 -0.0192685 0)
(-0.14286 -0.0258984 0)
(-0.110779 -0.027739 0)
(-0.0740143 -0.0295278 0)
(-0.0411333 -0.0237835 0)
(-0.0147892 -0.0177006 0)
(0.00190944 -0.00291066 0)
(0.00578049 -0.0013537 0)
(-0.00947944 0.0338 0)
(-0.0559164 0.0538168 0)
(-0.107426 0.0623155 0)
(-0.1613 0.0575557 0)
(-0.213601 0.0482107 0)
(-0.264048 0.0422889 0)
(-0.297865 0.0362858 0)
(-0.331657 0.0343811 0)
(-0.342565 0.0365408 0)
(-0.332063 0.0301265 0)
(-0.320392 0.00459087 0)
(-0.304069 -0.0166404 0)
(-0.275851 -0.0379371 0)
(-0.243115 -0.0523671 0)
(-0.198597 -0.0651485 0)
(-0.153392 -0.069564 0)
(-0.102047 -0.0719457 0)
(-0.0569732 -0.0594416 0)
(-0.0199498 -0.0437918 0)
(0.00289688 -0.0105131 0)
(0.0068123 -0.00176632 0)
(-0.0105094 0.0713244 0)
(-0.075864 0.105934 0)
(-0.141732 0.120113 0)
(-0.210931 0.114392 0)
(-0.273802 0.0974875 0)
(-0.329521 0.0840407 0)
(-0.37215 0.0690043 0)
(-0.403812 0.0551298 0)
(-0.417858 0.0460355 0)
(-0.413405 0.0226897 0)
(-0.396938 -0.0109505 0)
(-0.373593 -0.0425462 0)
(-0.336276 -0.0734652 0)
(-0.293899 -0.0964588 0)
(-0.238066 -0.11659 0)
(-0.182076 -0.12395 0)
(-0.118448 -0.127176 0)
(-0.0642523 -0.10534 0)
(-0.0192096 -0.0787892 0)
(0.00536677 -0.0196623 0)
(6.33719e-165 0.00170307 0)
(-0.0138422 0.116085 0)
(-0.0981737 0.184252 0)
(-0.171413 0.196297 0)
(-0.251605 0.188826 0)
(-0.321543 0.165499 0)
(-0.385483 0.139821 0)
(-0.432872 0.110013 0)
(-0.468487 0.0796751 0)
(-0.483094 0.0468697 0)
(-0.479266 0.00950808 0)
(-0.461498 -0.0348214 0)
(-0.433338 -0.0767719 0)
(-0.389494 -0.117605 0)
(-0.339139 -0.14976 0)
(-0.27246 -0.177274 0)
(-0.206736 -0.188031 0)
(-0.129407 -0.190317 0)
(-0.0673631 -0.157291 0)
(-0.0122249 -0.113909 0)
(0.0119536 -0.0233199 0)
(-5.60711e-266 0.00511435 0)
(-0.0700345 0.173882 0)
(-0.13136 0.261849 0)
(-0.212874 0.275275 0)
(-0.290433 0.264523 0)
(-0.36516 0.23247 0)
(-0.430361 0.195839 0)
(-0.482588 0.15232 0)
(-0.520187 0.105849 0)
(-0.539331 0.056224 0)
(-0.540671 0.00111511 0)
(-0.523938 -0.0575741 0)
(-0.494179 -0.114551 0)
(-0.444962 -0.168639 0)
(-0.387372 -0.213257 0)
(-0.309679 -0.250489 0)
(-0.233149 -0.26631 0)
(-0.14079 -0.268751 0)
(-0.0688854 -0.221208 0)
(0.000795745 -0.160815 0)
(0.0169769 -0.0193514 0)
(-0.0204574 0.0756953 0)
(-0.0937011 0.243794 0)
(-0.162551 0.327922 0)
(-0.246375 0.353856 0)
(-0.330177 0.340777 0)
(-0.409724 0.304467 0)
(-0.480961 0.256846 0)
(-0.538514 0.199355 0)
(-0.581442 0.136311 0)
(-0.605308 0.0673468 0)
(-0.610863 -0.00559601 0)
(-0.596199 -0.0813148 0)
(-0.565685 -0.155108 0)
(-0.512106 -0.224645 0)
(-0.447979 -0.283928 0)
(-0.358271 -0.33214 0)
(-0.271476 -0.355149 0)
(-0.159843 -0.35573 0)
(-0.082708 -0.296441 0)
(0.0133291 -0.201024 0)
(5.34031e-266 -0.00424423 0)
(-0.0145497 0.121633 0)
(-0.083927 0.317017 0)
(-0.172943 0.415367 0)
(-0.26889 0.443873 0)
(-0.363238 0.428471 0)
(-0.451626 0.383897 0)
(-0.529775 0.325155 0)
(-0.59486 0.253014 0)
(-0.644016 0.173006 0)
(-0.674871 0.0853807 0)
(-0.686476 -0.00788321 0)
(-0.675909 -0.103423 0)
(-0.646716 -0.198592 0)
(-0.590585 -0.287619 0)
(-0.520579 -0.36678 0)
(-0.419873 -0.429279 0)
(-0.3205 -0.463546 0)
(-0.192842 -0.461564 0)
(-0.102576 -0.390775 0)
(0.000679871 -0.251321 0)
(1.44953e-24 -2.30599e-24 0)
(-0.0121488 0.171373 0)
(-0.0853325 0.400405 0)
(-0.188679 0.511899 0)
(-0.29634 0.542736 0)
(-0.403142 0.522826 0)
(-0.501386 0.470002 0)
(-0.588606 0.39968 0)
(-0.662133 0.31302 0)
(-0.71899 0.21627 0)
(-0.757798 0.109591 0)
(-0.776263 -0.00422601 0)
(-0.771727 -0.121185 0)
(-0.745698 -0.239632 0)
(-0.689316 -0.351105 0)
(-0.614726 -0.453111 0)
(-0.502621 -0.533171 0)
(-0.389023 -0.579402 0)
(-0.238658 -0.575749 0)
(-0.131209 -0.485119 0)
(-0.00245035 -0.307593 0)
(5.74208e-77 -3.62383e-25 0)
(-0.0105986 0.220122 0)
(-0.0860006 0.495242 0)
(-0.202106 0.627608 0)
(-0.321656 0.659341 0)
(-0.440932 0.634544 0)
(-0.549917 0.569932 0)
(-0.646253 0.486655 0)
(-0.729017 0.383603 0)
(-0.793986 0.269078 0)
(-0.842169 0.142472 0)
(-0.869205 0.00610182 0)
(-0.873488 -0.134673 0)
(-0.853918 -0.281162 0)
(-0.800934 -0.420124 0)
(-0.724481 -0.553536 0)
(-0.602157 -0.65798 0)
(-0.472224 -0.726788 0)
(-0.29485 -0.724701 0)
(-0.164146 -0.624117 0)
(-0.00662191 -0.391531 0)
(1.52407e-164 -1.43552e-77 0)
(-0.0113589 0.265128 0)
(-0.0946239 0.590239 0)
(-0.226129 0.745817 0)
(-0.359428 0.779766 0)
(-0.491631 0.75002 0)
(-0.611398 0.673955 0)
(-0.716039 0.578255 0)
(-0.80744 0.459974 0)
(-0.879712 0.329342 0)
(-0.937762 0.184562 0)
(-0.97423 0.0274515 0)
(-0.990821 -0.136414 0)
(-0.981603 -0.311232 0)
(-0.938548 -0.480602 0)
(-0.865164 -0.649937 0)
(-0.737684 -0.786321 0)
(-0.590907 -0.882881 0)
(-0.385135 -0.886484 0)
(-0.222666 -0.765402 0)
(-0.0575162 -0.477991 0)
(5.6044e-266 0.00642245 0)
(-0.0133323 0.327461 0)
(-0.104559 0.712328 0)
(-0.251091 0.894438 0)
(-0.397318 0.926075 0)
(-0.540799 0.888307 0)
(-0.669889 0.794985 0)
(-0.780759 0.683935 0)
(-0.879284 0.54754 0)
(-0.957383 0.399935 0)
(-1.02502 0.236901 0)
(-1.07184 0.0590021 0)
(-1.10372 -0.127888 0)
(-1.11021 -0.334166 0)
(-1.08441 -0.538124 0)
(-1.02297 -0.755448 0)
(-0.89657 -0.935753 0)
(-0.734475 -1.08006 0)
(-0.484949 -1.09951 0)
(-0.268587 -0.950583 0)
(-0.0377601 -0.623319 0)
(0.0256898 -0.0605789 0)
(-0.0184251 0.378869 0)
(-0.12546 0.825094 0)
(-0.295097 1.03591 0)
(-0.458158 1.06643 0)
(-0.612018 1.02108 0)
(-0.748605 0.911719 0)
(-0.860688 0.786989 0)
(-0.962532 0.635476 0)
(-1.04152 0.474949 0)
(-1.11666 0.298869 0)
(-1.17211 0.106473 0)
(-1.22274 -0.0974578 0)
(-1.24958 -0.329502 0)
(-1.25359 -0.567004 0)
(-1.21623 -0.835426 0)
(-1.10837 -1.07484 0)
(-0.941103 -1.2902 0)
(-0.63671 -1.35469 0)
(-0.357677 -1.20627 0)
(0.0419983 -0.774492 0)
(1.42292e-231 -0.00642245 0)
(-0.0253091 0.474443 0)
(-0.148617 0.992318 0)
(-0.339793 1.23129 0)
(-0.517048 1.24449 0)
(-0.67703 1.18223 0)
(-0.816776 1.04438 0)
(-0.924987 0.900063 0)
(-1.02518 0.728727 0)
(-1.10005 0.554832 0)
(-1.17812 0.367586 0)
(-1.23908 0.164464 0)
(-1.30719 -0.0506301 0)
(-1.35813 -0.305224 0)
(-1.40064 -0.572476 0)
(-1.40639 -0.903666 0)
(-1.34388 -1.21427 0)
(-1.20451 -1.55524 0)
(-0.883865 -1.69277 0)
(-0.534493 -1.62771 0)
(-0.00142399 -1.00278 0)
(3.27552e-202 2.93356e-184 0)
(-0.0434695 0.545479 0)
(-0.20102 1.13343 0)
(-0.426334 1.40017 0)
(-0.621351 1.39799 0)
(-0.777595 1.31887 0)
(-0.911681 1.15601 0)
(-1.00055 0.994742 0)
(-1.08758 0.80894 0)
(-1.14454 0.627786 0)
(-1.21626 0.438034 0)
(-1.27235 0.235732 0)
(-1.35472 0.0231787 0)
(-1.42529 -0.235183 0)
(-1.51868 -0.516073 0)
(-1.57711 -0.889135 0)
(-1.60528 -1.27452 0)
(-1.52179 -1.74239 0)
(-1.24838 -2.02849 0)
(-0.82102 -2.07309 0)
(-0.00248046 -1.32384 0)
(1.17342e-183 2.21557e-184 0)
(-0.0640101 0.726603 0)
(-0.25408 1.37968 0)
(-0.501067 1.66084 0)
(-0.700704 1.59716 0)
(-0.838788 1.47948 0)
(-0.953059 1.2679 0)
(-1.00947 1.07986 0)
(-1.06952 0.873068 0)
(-1.09549 0.684651 0)
(-1.14575 0.495814 0)
(-1.18214 0.301515 0)
(-1.26031 0.102944 0)
(-1.33569 -0.145463 0)
(-1.46208 -0.419806 0)
(-1.57654 -0.824626 0)
(-1.70399 -1.26909 0)
(-1.75041 -1.92468 0)
(-1.61446 -2.39956 0)
(-1.28214 -2.89587 0)
(-0.367221 -1.85358 0)
(3.0278e-254 -2.93356e-184 0)
(-0.129631 0.848653 0)
(-0.393897 1.55694 0)
(-0.653012 1.84046 0)
(-0.836418 1.72524 0)
(-0.900299 1.56941 0)
(-0.954589 1.32094 0)
(-0.930672 1.11113 0)
(-0.930471 0.892935 0)
(-0.892614 0.704241 0)
(-0.89757 0.525495 0)
(-0.888641 0.350276 0)
(-0.943821 0.18005 0)
(-0.995532 -0.0333869 0)
(-1.14452 -0.269287 0)
(-1.28225 -0.644812 0)
(-1.55704 -1.09267 0)
(-1.73039 -1.81772 0)
(-2.03236 -2.49648 0)
(-1.82206 -3.26497 0)
(-1.76654 -2.65901 0)
(-2.11021e-264 -0.18216 0)
(-0.182149 1.27048 0)
(-0.474718 1.90702 0)
(-0.666199 2.12488 0)
(-0.759519 1.84456 0)
(-0.692283 1.61118 0)
(-0.634511 1.29802 0)
(-0.496035 1.06224 0)
(-0.403398 0.835085 0)
(-0.279277 0.653449 0)
(-0.214662 0.492745 0)
(-0.138944 0.345632 0)
(-0.139399 0.212153 0)
(-0.134443 0.0484858 0)
(-0.242966 -0.128156 0)
(-0.34961 -0.426718 0)
(-0.642329 -0.809305 0)
(-0.917998 -1.4804 0)
(-1.42644 -2.27372 0)
(-1.65784 -3.24481 0)
(-1.84294 -3.57139 0)
(-0.728642 -1.96096 0)
(-0.396115 1.4701 0)
(-0.73605 2.01164 0)
(-0.597569 2.11846 0)
(-0.431847 1.7344 0)
(-0.0353675 1.44533 0)
(0.238536 1.11732 0)
(0.578034 0.882188 0)
(0.806402 0.674428 0)
(1.0464 0.516992 0)
(1.19321 0.387247 0)
(1.34344 0.275303 0)
(1.39839 0.181505 0)
(1.46705 0.0693403 0)
(1.40126 -0.0425302 0)
(1.36316 -0.246547 0)
(1.07896 -0.503479 0)
(0.829309 -1.03222 0)
(0.143728 -1.71962 0)
(-0.35424 -2.84091 0)
(-1.03599 -3.52318 0)
(-0.67795 -2.77176 0)
(-0.24641 2.46398 0)
(-0.0642354 2.10286 0)
(0.713305 1.87206 0)
(1.29933 1.27682 0)
(2.00238 0.963841 0)
(2.47811 0.681242 0)
(2.95032 0.503524 0)
(3.26571 0.365507 0)
(3.56198 0.269074 0)
(3.74876 0.196648 0)
(3.92943 0.138512 0)
(4.0139 0.0923751 0)
(4.11469 0.0390261 0)
(4.09035 -0.0152397 0)
(4.10565 -0.11827 0)
(3.88937 -0.256114 0)
(3.7102 -0.57357 0)
(3.03252 -1.05283 0)
(2.33191 -2.11877 0)
(0.842723 -3.20527 0)
(-0.0506643 -3.75257 0)
(1.67635 1.6795 0)
(2.74501 0.986601 0)
(4.60685 0.755203 0)
(5.43457 0.421568 0)
(6.25649 0.275672 0)
(6.69415 0.16155 0)
(7.08241 0.102139 0)
(7.30597 0.0619636 0)
(7.50336 0.0383197 0)
(7.61415 0.0227494 0)
(7.7212 0.0115908 0)
(7.76202 0.00295057 0)
(7.81913 -0.00815854 0)
(7.78761 -0.019996 0)
(7.79263 -0.0478388 0)
(7.61175 -0.0797706 0)
(7.47813 -0.175098 0)
(6.84452 -0.283549 0)
(6.19145 -0.638563 0)
(4.02146 -1.02747 0)
(2.02722 -1.86181 0)
)
;

boundaryField
{
    movingWall
    {
        type            fixedValue;
        value           uniform (10 0 0);
    }
    fixedWalls
    {
        type            noSlip;
    }
    frontAndBack
    {
        type            empty;
    }
}


// ************************************************************************* //
