/*--------------------------------*- C++ -*----------------------------------*\
| =========                 |                                                 |
| \\      /  F ield         | OpenFOAM: The Open Source CFD Toolbox           |
|  \\    /   O peration     | Version:  4.1                                   |
|   \\  /    A nd           | Web:      www.OpenFOAM.org                      |
|    \\/     M anipulation  |                                                 |
\*---------------------------------------------------------------------------*/
FoamFile
{
    version     2.0;
    format      ascii;
    class       volVectorField;
    location    "0.094";
    object      U;
}
// * * * * * * * * * * * * * * * * * * * * * * * * * * * * * * * * * * * * * //

dimensions      [0 1 -1 0 0 0 0];

internalField   nonuniform List<vector> 
100
(
(-0.00189219 0.00129632 0)
(-0.00505813 0.00146409 0)
(-0.0121314 0.00158652 0)
(-0.0155004 0.000567042 0)
(-0.019053 0.000176117 0)
(-0.0195993 -0.00125957 0)
(-0.0176254 -0.0018282 0)
(-0.014413 -0.00322952 0)
(-0.00655591 -0.00325072 0)
(-0.00267081 -0.00296693 0)
(-0.00321182 0.00570826 0)
(-0.0103014 0.00869277 0)
(-0.0226319 0.0091618 0)
(-0.0290688 0.00611559 0)
(-0.0349295 0.00434243 0)
(-0.0357927 -0.000467299 0)
(-0.0323578 -0.00296689 0)
(-0.0261832 -0.00809347 0)
(-0.0127242 -0.00829943 0)
(-0.00417385 -0.00623015 0)
(-0.0038628 0.0148169 0)
(-0.012577 0.0206649 0)
(-0.02708 0.0206174 0)
(-0.0348607 0.0124069 0)
(-0.0420927 0.00719881 0)
(-0.0434911 -0.00443313 0)
(-0.0402267 -0.0112761 0)
(-0.033068 -0.0235046 0)
(-0.0171146 -0.025393 0)
(-0.00581794 -0.0202082 0)
(-0.0060558 0.0220014 0)
(-0.0177375 0.0316423 0)
(-0.0363212 0.0316989 0)
(-0.0465335 0.0208367 0)
(-0.0556915 0.0135803 0)
(-0.0582615 -0.00248148 0)
(-0.0553981 -0.0125656 0)
(-0.0469183 -0.0311112 0)
(-0.0265234 -0.034765 0)
(-0.0094281 -0.0285981 0)
(-0.00711026 0.0388585 0)
(-0.0207327 0.0506081 0)
(-0.0421248 0.0499636 0)
(-0.0542753 0.0310132 0)
(-0.0659297 0.0193597 0)
(-0.0704394 -0.00583854 0)
(-0.0701966 -0.0225437 0)
(-0.0621986 -0.0537816 0)
(-0.039323 -0.0634426 0)
(-0.0148372 -0.0572637 0)
(-0.014017 0.049287 0)
(-0.0345073 0.0660176 0)
(-0.0616449 0.0654917 0)
(-0.0778596 0.0441056 0)
(-0.0917549 0.0307101 0)
(-0.0991983 0.00160963 0)
(-0.102754 -0.0192602 0)
(-0.095479 -0.0616181 0)
(-0.0684631 -0.0803626 0)
(-0.0268703 -0.081512 0)
(-0.0157506 0.0883228 0)
(-0.038875 0.0975327 0)
(-0.0680934 0.094588 0)
(-0.0854358 0.0597056 0)
(-0.101125 0.041493 0)
(-0.109939 0.00308771 0)
(-0.12014 -0.026117 0)
(-0.11692 -0.0909065 0)
(-0.0959167 -0.133279 0)
(-0.0396853 -0.155776 0)
(-0.0404717 0.102099 0)
(-0.0755314 0.116889 0)
(-0.0921135 0.112365 0)
(-0.102793 0.0761209 0)
(-0.108123 0.0568306 0)
(-0.111617 0.0201998 0)
(-0.126338 -0.00945266 0)
(-0.122752 -0.0850406 0)
(-0.117473 -0.153501 0)
(-0.0504885 -0.214685 0)
(-0.0356941 0.207227 0)
(-0.0314706 0.147317 0)
(-0.0105353 0.125041 0)
(0.0135295 0.0733041 0)
(0.0293171 0.0519704 0)
(0.0526463 0.0178678 0)
(0.0469579 -0.0139809 0)
(0.0586939 -0.104602 0)
(0.0110346 -0.206675 0)
(0.00471449 -0.332552 0)
(0.149724 0.163429 0)
(0.236631 0.0892155 0)
(0.375108 0.0692656 0)
(0.436555 0.0357492 0)
(0.480805 0.0212023 0)
(0.512547 0.00283921 0)
(0.499679 -0.00917186 0)
(0.492677 -0.044822 0)
(0.348002 -0.0862813 0)
(0.20289 -0.185295 0)
)
;

boundaryField
{
    movingWall
    {
        type            fixedValue;
        value           uniform (1 0 0);
    }
    fixedWalls
    {
        type            noSlip;
    }
    frontAndBack
    {
        type            empty;
    }
}


// ************************************************************************* //
