/*--------------------------------*- C++ -*----------------------------------*\
| =========                 |                                                 |
| \\      /  F ield         | OpenFOAM: The Open Source CFD Toolbox           |
|  \\    /   O peration     | Version:  4.1                                   |
|   \\  /    A nd           | Web:      www.OpenFOAM.org                      |
|    \\/     M anipulation  |                                                 |
\*---------------------------------------------------------------------------*/
FoamFile
{
    version     2.0;
    format      ascii;
    class       volVectorField;
    location    "10";
    object      U;
}
// * * * * * * * * * * * * * * * * * * * * * * * * * * * * * * * * * * * * * //

dimensions      [0 1 -1 0 0 0 0];

internalField   nonuniform List<vector> 
10000
(
(4.96208e-06 -4.96049e-06 0)
(2.11863e-05 -8.92604e-06 0)
(3.87235e-05 -9.28649e-06 0)
(5.25442e-05 -6.69831e-06 0)
(5.90079e-05 -2.24937e-06 0)
(5.58541e-05 3.24114e-06 0)
(4.18794e-05 9.21622e-06 0)
(1.66228e-05 1.53105e-05 0)
(-1.9878e-05 2.12888e-05 0)
(-6.72593e-05 2.70027e-05 0)
(-0.000124951 3.23625e-05 0)
(-0.000192257 3.73171e-05 0)
(-0.000268414 4.18421e-05 0)
(-0.000352626 4.59306e-05 0)
(-0.000444096 4.95874e-05 0)
(-0.000542035 5.28251e-05 0)
(-0.000645685 5.56608e-05 0)
(-0.000754314 5.81143e-05 0)
(-0.000867228 6.02067e-05 0)
(-0.000983771 6.19589e-05 0)
(-0.00110332 6.33911e-05 0)
(-0.00122529 6.45224e-05 0)
(-0.00134913 6.53699e-05 0)
(-0.00147432 6.59491e-05 0)
(-0.00160035 6.62733e-05 0)
(-0.00172675 6.63536e-05 0)
(-0.00185307 6.61994e-05 0)
(-0.00197886 6.58178e-05 0)
(-0.0021037 6.52141e-05 0)
(-0.00222715 6.43921e-05 0)
(-0.00234881 6.3354e-05 0)
(-0.00246827 6.21009e-05 0)
(-0.0025851 6.06327e-05 0)
(-0.00269891 5.89487e-05 0)
(-0.00280928 5.70478e-05 0)
(-0.00291579 5.49287e-05 0)
(-0.00301803 5.25898e-05 0)
(-0.00311558 5.00303e-05 0)
(-0.00320802 4.72497e-05 0)
(-0.00329494 4.42483e-05 0)
(-0.00337591 4.10276e-05 0)
(-0.00345054 3.75902e-05 0)
(-0.00351841 3.39402e-05 0)
(-0.00357913 3.00834e-05 0)
(-0.00363232 2.60274e-05 0)
(-0.00367762 2.17816e-05 0)
(-0.00371468 1.73576e-05 0)
(-0.00374319 1.27691e-05 0)
(-0.00376285 8.03206e-06 0)
(-0.0037734 3.16448e-06 0)
(-0.00377463 -1.81326e-06 0)
(-0.00376636 -6.87867e-06 0)
(-0.00374843 -1.20071e-05 0)
(-0.00372078 -1.71718e-05 0)
(-0.00368336 -2.23445e-05 0)
(-0.00363618 -2.74947e-05 0)
(-0.00357933 -3.25908e-05 0)
(-0.00351295 -3.75998e-05 0)
(-0.00343722 -4.24878e-05 0)
(-0.00335242 -4.72202e-05 0)
(-0.00325888 -5.17619e-05 0)
(-0.00315698 -5.6078e-05 0)
(-0.00304719 -6.01338e-05 0)
(-0.00293003 -6.38955e-05 0)
(-0.00280609 -6.73305e-05 0)
(-0.002676 -7.04074e-05 0)
(-0.00254046 -7.3097e-05 0)
(-0.00240024 -7.53724e-05 0)
(-0.00225612 -7.72094e-05 0)
(-0.00210896 -7.85868e-05 0)
(-0.00195962 -7.94866e-05 0)
(-0.00180902 -7.98947e-05 0)
(-0.00165808 -7.98006e-05 0)
(-0.00150776 -7.91982e-05 0)
(-0.001359 -7.80854e-05 0)
(-0.00121276 -7.64646e-05 0)
(-0.00106999 -7.43427e-05 0)
(-0.000931611 -7.17309e-05 0)
(-0.000798525 -6.86452e-05 0)
(-0.000671601 -6.51059e-05 0)
(-0.000551665 -6.11379e-05 0)
(-0.000439494 -5.67706e-05 0)
(-0.000335802 -5.20378e-05 0)
(-0.000241237 -4.69782e-05 0)
(-0.00015637 -4.16353e-05 0)
(-8.16842e-05 -3.60579e-05 0)
(-1.75667e-05 -3.03013e-05 0)
(3.57064e-05 -2.4428e-05 0)
(7.79841e-05 -1.85101e-05 0)
(0.00010926 -1.26316e-05 0)
(0.000129695 -6.89309e-06 0)
(0.000139656 -1.41769e-06 0)
(0.000139755 3.64035e-06 0)
(0.000130914 8.08344e-06 0)
(0.000114448 1.16545e-05 0)
(9.21706e-05 1.40178e-05 0)
(6.65179e-05 1.47433e-05 0)
(4.06516e-05 1.33213e-05 0)
(1.83333e-05 9.35012e-06 0)
(3.46428e-06 3.459e-06 0)
(8.96731e-06 -2.11994e-05 0)
(3.88446e-05 -3.8715e-05 0)
(6.72726e-05 -3.76693e-05 0)
(8.36533e-05 -2.33956e-05 0)
(8.00489e-05 -6.30702e-07 0)
(5.12816e-05 2.70722e-05 0)
(-5.64118e-06 5.71983e-05 0)
(-9.20593e-05 8.80268e-05 0)
(-0.00020812 0.000118406 0)
(-0.000353131 0.000147583 0)
(-0.00052583 0.00017508 0)
(-0.000724575 0.000200612 0)
(-0.000947491 0.000224029 0)
(-0.00119257 0.000245269 0)
(-0.00145776 0.000264334 0)
(-0.00174098 0.000281268 0)
(-0.00204021 0.000296145 0)
(-0.00235346 0.00030905 0)
(-0.00267884 0.00032008 0)
(-0.00301452 0.000329334 0)
(-0.00335877 0.000336909 0)
(-0.00370992 0.000342895 0)
(-0.00406639 0.000347378 0)
(-0.00442669 0.000350432 0)
(-0.00478937 0.000352125 0)
(-0.00515304 0.000352512 0)
(-0.00551638 0.000351641 0)
(-0.00587809 0.000349548 0)
(-0.0062369 0.000346261 0)
(-0.00659158 0.000341801 0)
(-0.00694091 0.000336181 0)
(-0.00728369 0.000329407 0)
(-0.0076187 0.000321482 0)
(-0.00794476 0.000312405 0)
(-0.00826066 0.000302172 0)
(-0.00856522 0.000290778 0)
(-0.00885723 0.00027822 0)
(-0.00913551 0.000264495 0)
(-0.00939885 0.000249605 0)
(-0.00964608 0.000233554 0)
(-0.00987602 0.000216353 0)
(-0.0100875 0.000198019 0)
(-0.0102795 0.000178577 0)
(-0.0104508 0.000158059 0)
(-0.0106003 0.00013651 0)
(-0.0107272 0.000113979 0)
(-0.0108304 9.05314e-05 0)
(-0.0109092 6.62399e-05 0)
(-0.0109626 4.11896e-05 0)
(-0.01099 1.54769e-05 0)
(-0.0109909 -1.07908e-05 0)
(-0.0109648 -3.74946e-05 0)
(-0.0109112 -6.45053e-05 0)
(-0.0108301 -9.16833e-05 0)
(-0.0107214 -0.00011888 0)
(-0.0105851 -0.000145937 0)
(-0.0104215 -0.000172691 0)
(-0.010231 -0.00019897 0)
(-0.0100143 -0.000224598 0)
(-0.00977201 -0.000249397 0)
(-0.00950518 -0.000273185 0)
(-0.0092149 -0.000295782 0)
(-0.00890248 -0.000317011 0)
(-0.0085694 -0.000336696 0)
(-0.0082173 -0.00035467 0)
(-0.00784798 -0.000370772 0)
(-0.0074634 -0.000384853 0)
(-0.00706566 -0.000396775 0)
(-0.00665699 -0.000406413 0)
(-0.00623971 -0.000413659 0)
(-0.00581628 -0.000418421 0)
(-0.0053892 -0.000420628 0)
(-0.00496105 -0.000420227 0)
(-0.00453445 -0.000417186 0)
(-0.00411203 -0.000411496 0)
(-0.00369644 -0.000403171 0)
(-0.00329026 -0.000392247 0)
(-0.00289607 -0.000378784 0)
(-0.00251634 -0.000362866 0)
(-0.00215346 -0.000344599 0)
(-0.0018097 -0.000324115 0)
(-0.00148718 -0.000301568 0)
(-0.00118787 -0.000277136 0)
(-0.000913504 -0.000251025 0)
(-0.000665637 -0.000223463 0)
(-0.000445556 -0.00019471 0)
(-0.000254273 -0.000165058 0)
(-9.24847e-05 -0.000134836 0)
(3.94675e-05 -0.000104424 0)
(0.000141648 -7.42596e-05 0)
(0.00021459 -4.48635e-05 0)
(0.000259371 -1.68612e-05 0)
(0.000277716 8.97793e-06 0)
(0.000272122 3.16929e-05 0)
(0.000246009 5.00722e-05 0)
(0.0002039 6.25938e-05 0)
(0.000151586 6.74027e-05 0)
(9.62112e-05 6.24301e-05 0)
(4.59694e-05 4.59488e-05 0)
(9.34965e-06 1.83069e-05 0)
(9.39142e-06 -3.88521e-05 0)
(3.80421e-05 -6.72164e-05 0)
(5.86177e-05 -5.81842e-05 0)
(5.78579e-05 -2.28945e-05 0)
(2.55861e-05 2.95824e-05 0)
(-4.50143e-05 9.239e-05 0)
(-0.000158062 0.000160524 0)
(-0.00031554 0.000230425 0)
(-0.00051781 0.000299614 0)
(-0.000764043 0.000366401 0)
(-0.00105255 0.000429667 0)
(-0.00138105 0.000488704 0)
(-0.00174686 0.000543101 0)
(-0.00214707 0.000592654 0)
(-0.00257862 0.00063731 0)
(-0.00303841 0.00067712 0)
(-0.00352336 0.000712204 0)
(-0.00403043 0.000742726 0)
(-0.00455669 0.000768876 0)
(-0.00509927 0.000790856 0)
(-0.00565544 0.000808867 0)
(-0.00622258 0.000823103 0)
(-0.00679817 0.000833747 0)
(-0.00737979 0.000840965 0)
(-0.0079651 0.000844902 0)
(-0.00855188 0.000845685 0)
(-0.00913796 0.000843418 0)
(-0.00972122 0.000838187 0)
(-0.0102996 0.000830059 0)
(-0.0108711 0.000819081 0)
(-0.0114337 0.000805289 0)
(-0.0119855 0.000788702 0)
(-0.0125244 0.000769331 0)
(-0.0130486 0.000747179 0)
(-0.0135561 0.000722245 0)
(-0.014045 0.000694526 0)
(-0.0145133 0.000664021 0)
(-0.0149592 0.000630733 0)
(-0.0153807 0.000594672 0)
(-0.015776 0.00055586 0)
(-0.0161431 0.000514329 0)
(-0.0164803 0.00047013 0)
(-0.0167859 0.000423327 0)
(-0.017058 0.000374008 0)
(-0.017295 0.000322281 0)
(-0.0174955 0.000268274 0)
(-0.0176579 0.000212144 0)
(-0.0177809 0.00015407 0)
(-0.0178633 9.42569e-05 0)
(-0.0179041 3.29365e-05 0)
(-0.0179024 -2.96343e-05 0)
(-0.0178574 -9.31736e-05 0)
(-0.0177688 -0.000157375 0)
(-0.0176363 -0.00022191 0)
(-0.0174597 -0.000286427 0)
(-0.0172393 -0.000350557 0)
(-0.0169756 -0.000413916 0)
(-0.0166692 -0.000476102 0)
(-0.0163211 -0.000536707 0)
(-0.0159326 -0.000595313 0)
(-0.0155051 -0.000651502 0)
(-0.0150406 -0.000704854 0)
(-0.014541 -0.000754957 0)
(-0.0140088 -0.000801408 0)
(-0.0134464 -0.000843818 0)
(-0.0128569 -0.000881818 0)
(-0.0122431 -0.000915062 0)
(-0.0116085 -0.000943232 0)
(-0.0109565 -0.000966043 0)
(-0.0102909 -0.000983246 0)
(-0.00961533 -0.000994631 0)
(-0.00893384 -0.00100003 0)
(-0.00825044 -0.000999335 0)
(-0.00756922 -0.000992466 0)
(-0.00689429 -0.000979407 0)
(-0.00622976 -0.000960193 0)
(-0.0055797 -0.000934912 0)
(-0.00494809 -0.000903708 0)
(-0.0043388 -0.00086678 0)
(-0.00375555 -0.000824383 0)
(-0.00320187 -0.000776827 0)
(-0.00268104 -0.000724482 0)
(-0.0021961 -0.000667772 0)
(-0.00174975 -0.000607184 0)
(-0.00134438 -0.000543266 0)
(-0.00098194 -0.000476635 0)
(-0.000663962 -0.000407986 0)
(-0.000391472 -0.000338103 0)
(-0.000164938 -0.00026788 0)
(1.58035e-05 -0.000198341 0)
(0.000151636 -0.000130684 0)
(0.000244263 -6.63237e-05 0)
(0.000296334 -6.95714e-06 0)
(0.000311589 4.53575e-05 0)
(0.000295026 8.81122e-05 0)
(0.000253075 0.000118271 0)
(0.000193734 0.000132254 0)
(0.000126621 0.00012612 0)
(6.26526e-05 9.61822e-05 0)
(1.33524e-05 4.05922e-05 0)
(6.85696e-06 -5.29064e-05 0)
(2.39225e-05 -8.38067e-05 0)
(2.3416e-05 -5.74768e-05 0)
(-8.84027e-06 9.1414e-06 0)
(-8.38928e-05 0.000102551 0)
(-0.000209197 0.000212437 0)
(-0.000389351 0.000331089 0)
(-0.000626621 0.000452861 0)
(-0.000921447 0.000573695 0)
(-0.00127287 0.000690732 0)
(-0.00167888 0.000802015 0)
(-0.00213673 0.00090625 0)
(-0.00264313 0.00100264 0)
(-0.00319444 0.00109075 0)
(-0.00378684 0.0011704 0)
(-0.00441637 0.00124161 0)
(-0.00507908 0.00130454 0)
(-0.00577106 0.0013594 0)
(-0.00648845 0.00140648 0)
(-0.00722751 0.00144611 0)
(-0.00798461 0.0014786 0)
(-0.00875626 0.00150427 0)
(-0.00953909 0.00152341 0)
(-0.0103298 0.00153632 0)
(-0.0111253 0.00154322 0)
(-0.0119226 0.00154434 0)
(-0.0127186 0.00153986 0)
(-0.0135105 0.00152992 0)
(-0.0142955 0.00151465 0)
(-0.0150708 0.00149413 0)
(-0.0158337 0.00146842 0)
(-0.0165815 0.00143758 0)
(-0.0173116 0.00140163 0)
(-0.0180212 0.00136058 0)
(-0.0187078 0.00131443 0)
(-0.0193687 0.00126321 0)
(-0.0200013 0.00120691 0)
(-0.0206031 0.00114556 0)
(-0.0211715 0.00107919 0)
(-0.0217039 0.00100785 0)
(-0.0221979 0.000931608 0)
(-0.022651 0.000850572 0)
(-0.0230609 0.000764872 0)
(-0.0234254 0.000674677 0)
(-0.0237423 0.000580192 0)
(-0.0240094 0.000481662 0)
(-0.0242251 0.000379375 0)
(-0.0243874 0.000273663 0)
(-0.0244949 0.000164904 0)
(-0.0245463 5.35192e-05 0)
(-0.0245404 -6.0024e-05 0)
(-0.0244763 -0.000175215 0)
(-0.0243535 -0.000291502 0)
(-0.0241717 -0.000408293 0)
(-0.0239308 -0.000524958 0)
(-0.0236312 -0.000640838 0)
(-0.0232736 -0.000755244 0)
(-0.0228588 -0.000867462 0)
(-0.0223883 -0.000976765 0)
(-0.0218638 -0.00108241 0)
(-0.0212872 -0.00118366 0)
(-0.0206612 -0.00127976 0)
(-0.0199883 -0.00136999 0)
(-0.0192718 -0.00145363 0)
(-0.0185151 -0.00153001 0)
(-0.0177221 -0.00159846 0)
(-0.0168967 -0.00165837 0)
(-0.0160434 -0.00170919 0)
(-0.0151668 -0.00175042 0)
(-0.0142717 -0.00178161 0)
(-0.0133632 -0.00180241 0)
(-0.0124465 -0.00181251 0)
(-0.0115268 -0.00181173 0)
(-0.0106096 -0.00179993 0)
(-0.00970036 -0.00177708 0)
(-0.00880439 -0.00174327 0)
(-0.00792707 -0.00169863 0)
(-0.00707366 -0.00164345 0)
(-0.00624923 -0.00157808 0)
(-0.00545868 -0.00150297 0)
(-0.00470663 -0.0014187 0)
(-0.0039974 -0.00132593 0)
(-0.00333495 -0.00122542 0)
(-0.00272284 -0.00111807 0)
(-0.00216414 -0.00100485 0)
(-0.00166142 -0.000886894 0)
(-0.00121664 -0.000765446 0)
(-0.000831107 -0.000641916 0)
(-0.0005054 -0.0005179 0)
(-0.000239276 -0.000395212 0)
(-3.15753e-05 -0.000275942 0)
(0.000119891 -0.000162522 0)
(0.000218469 -5.78069e-05 0)
(0.000268805 3.48224e-05 0)
(0.000277 0.000111354 0)
(0.000250757 0.000167054 0)
(0.000199508 0.000196451 0)
(0.000134457 0.000193479 0)
(6.83609e-05 0.000151946 0)
(1.49108e-05 6.65494e-05 0)
(2.39719e-06 -5.96503e-05 0)
(9.53361e-07 -8.0291e-05 0)
(-2.98745e-05 -2.49105e-05 0)
(-0.000104034 8.44201e-05 0)
(-0.000232474 0.000230083 0)
(-0.00042252 0.000398431 0)
(-0.000678691 0.000579062 0)
(-0.00100317 0.00076418 0)
(-0.00139625 0.000948038 0)
(-0.00185676 0.00112648 0)
(-0.00238239 0.00129659 0)
(-0.00296996 0.00145637 0)
(-0.00361568 0.00160453 0)
(-0.00431535 0.00174032 0)
(-0.00506448 0.0018634 0)
(-0.00585844 0.00197368 0)
(-0.00669254 0.00207133 0)
(-0.00756209 0.0021566 0)
(-0.00846248 0.00222989 0)
(-0.00938918 0.00229161 0)
(-0.0103378 0.00234222 0)
(-0.011304 0.00238216 0)
(-0.0122837 0.00241186 0)
(-0.0132729 0.00243172 0)
(-0.0142676 0.0024421 0)
(-0.0152641 0.00244331 0)
(-0.0162587 0.00243563 0)
(-0.0172477 0.00241928 0)
(-0.0182277 0.00239444 0)
(-0.0191952 0.00236125 0)
(-0.0201468 0.00231982 0)
(-0.0210791 0.00227021 0)
(-0.0219888 0.0022125 0)
(-0.0228725 0.00214669 0)
(-0.023727 0.00207284 0)
(-0.024549 0.00199095 0)
(-0.0253353 0.00190107 0)
(-0.0260826 0.00180324 0)
(-0.0267878 0.00169753 0)
(-0.0274479 0.00158403 0)
(-0.0280597 0.00146289 0)
(-0.0286202 0.00133427 0)
(-0.0291267 0.00119841 0)
(-0.0295763 0.00105557 0)
(-0.0299664 0.000906107 0)
(-0.0302946 0.000750406 0)
(-0.0305586 0.000588934 0)
(-0.0307563 0.000422221 0)
(-0.0308859 0.000250865 0)
(-0.0309458 7.55325e-05 0)
(-0.0309347 -0.000103042 0)
(-0.0308516 -0.000284057 0)
(-0.0306958 -0.000466651 0)
(-0.0304671 -0.000649899 0)
(-0.0301655 -0.000832825 0)
(-0.0297915 -0.0010144 0)
(-0.0293458 -0.00119357 0)
(-0.0288297 -0.00136921 0)
(-0.0282451 -0.00154021 0)
(-0.0275939 -0.00170543 0)
(-0.0268787 -0.00186372 0)
(-0.0261025 -0.00201393 0)
(-0.0252688 -0.00215495 0)
(-0.0243814 -0.00228567 0)
(-0.0234445 -0.00240505 0)
(-0.0224627 -0.00251209 0)
(-0.0214411 -0.00260586 0)
(-0.020385 -0.00268548 0)
(-0.0192999 -0.00275021 0)
(-0.0181919 -0.00279936 0)
(-0.017067 -0.00283239 0)
(-0.0159315 -0.00284885 0)
(-0.0147919 -0.00284842 0)
(-0.0136547 -0.00283094 0)
(-0.0125265 -0.00279636 0)
(-0.0114139 -0.00274479 0)
(-0.0103233 -0.0026765 0)
(-0.00926115 -0.00259188 0)
(-0.00823358 -0.0024915 0)
(-0.0072465 -0.0023761 0)
(-0.00630553 -0.00224654 0)
(-0.00541589 -0.00210387 0)
(-0.00458237 -0.00194929 0)
(-0.00380928 -0.00178417 0)
(-0.00310032 -0.00161008 0)
(-0.00245858 -0.00142875 0)
(-0.00188643 -0.00124213 0)
(-0.00138545 -0.0010524 0)
(-0.000956325 -0.000862015 0)
(-0.000598802 -0.000673753 0)
(-0.000311541 -0.000490764 0)
(-9.20224e-05 -0.000316664 0)
(6.3574e-05 -0.000155626 0)
(0.0001605 -1.24981e-05 0)
(0.000205575 0.000107084 0)
(0.000207314 0.00019659 0)
(0.000176047 0.000248546 0)
(0.00012398 0.000254593 0)
(6.50964e-05 0.000205702 0)
(1.44847e-05 9.26698e-05 0)
(-3.22607e-06 -5.6646e-05 0)
(-2.75936e-05 -5.09691e-05 0)
(-9.5021e-05 4.71886e-05 0)
(-0.000218484 0.000211579 0)
(-0.000408143 0.000421003 0)
(-0.000670604 0.000658797 0)
(-0.00100984 0.000912035 0)
(-0.00142761 0.00117084 0)
(-0.00192383 0.0014278 0)
(-0.00249699 0.00167741 0)
(-0.00314439 0.00191574 0)
(-0.00386244 0.00214003 0)
(-0.00464691 0.00234843 0)
(-0.00549306 0.00253983 0)
(-0.00639586 0.00271363 0)
(-0.00735009 0.00286966 0)
(-0.00835043 0.00300801 0)
(-0.00939154 0.00312899 0)
(-0.0104681 0.00323305 0)
(-0.011575 0.00332072 0)
(-0.012707 0.00339258 0)
(-0.0138592 0.00344918 0)
(-0.0150268 0.00349111 0)
(-0.016205 0.00351889 0)
(-0.0173893 0.00353299 0)
(-0.0185751 0.00353385 0)
(-0.0197581 0.00352182 0)
(-0.0209341 0.00349723 0)
(-0.0220988 0.00346032 0)
(-0.0232482 0.0034113 0)
(-0.0243781 0.00335031 0)
(-0.0254846 0.00327747 0)
(-0.0265637 0.00319287 0)
(-0.0276114 0.00309658 0)
(-0.028624 0.00298864 0)
(-0.0295974 0.00286913 0)
(-0.0305279 0.00273809 0)
(-0.0314117 0.00259563 0)
(-0.0322452 0.00244187 0)
(-0.0330245 0.00227696 0)
(-0.0337463 0.00210113 0)
(-0.034407 0.00191465 0)
(-0.0350032 0.00171786 0)
(-0.0355319 0.00151118 0)
(-0.0359899 0.00129512 0)
(-0.0363744 0.00107026 0)
(-0.0366828 0.000837273 0)
(-0.0369128 0.00059694 0)
(-0.0370623 0.000350124 0)
(-0.0371294 9.77855e-05 0)
(-0.0371128 -0.000159019 0)
(-0.0370113 -0.000419143 0)
(-0.0368242 -0.000681354 0)
(-0.0365512 -0.000944335 0)
(-0.0361925 -0.0012067 0)
(-0.0357486 -0.00146698 0)
(-0.0352206 -0.00172368 0)
(-0.03461 -0.00197523 0)
(-0.0339188 -0.00222004 0)
(-0.0331495 -0.0024565 0)
(-0.0323051 -0.00268299 0)
(-0.0313892 -0.0028979 0)
(-0.0304058 -0.00309965 0)
(-0.0293593 -0.00328671 0)
(-0.0282546 -0.00345758 0)
(-0.0270972 -0.00361087 0)
(-0.0258928 -0.00374527 0)
(-0.0246477 -0.00385957 0)
(-0.0233683 -0.0039527 0)
(-0.0220615 -0.00402371 0)
(-0.0207343 -0.00407184 0)
(-0.0193941 -0.00409645 0)
(-0.0180484 -0.00409712 0)
(-0.0167047 -0.00407361 0)
(-0.0153706 -0.00402586 0)
(-0.0140537 -0.00395404 0)
(-0.0127615 -0.00385852 0)
(-0.0115014 -0.00373988 0)
(-0.0102805 -0.00359893 0)
(-0.00910566 -0.00343671 0)
(-0.00798333 -0.00325446 0)
(-0.00691958 -0.00305368 0)
(-0.00591996 -0.00283608 0)
(-0.00498942 -0.00260362 0)
(-0.00413228 -0.00235852 0)
(-0.00335211 -0.00210324 0)
(-0.00265166 -0.00184056 0)
(-0.00203278 -0.00157355 0)
(-0.00149634 -0.00130565 0)
(-0.00104212 -0.00104073 0)
(-0.00066871 -0.000783123 0)
(-0.000373415 -0.000537756 0)
(-0.000152141 -0.000310224 0)
(7.18007e-07 -0.000106926 0)
(9.2397e-05 6.48108e-05 0)
(0.000131876 0.000196611 0)
(0.000129991 0.00027895 0)
(9.95078e-05 0.000301109 0)
(5.51106e-05 0.000251167 0)
(1.26227e-05 0.000116134 0)
(-9.50835e-06 -4.24113e-05 0)
(-5.94616e-05 7.92579e-06 0)
(-0.000167589 0.000164165 0)
(-0.000345453 0.000396864 0)
(-0.000601957 0.000681884 0)
(-0.000942539 0.00099996 0)
(-0.00137026 0.00133592 0)
(-0.00188613 0.00167797 0)
(-0.00248951 0.0020171 0)
(-0.00317836 0.00234654 0)
(-0.0039495 0.00266132 0)
(-0.00479892 0.0029579 0)
(-0.00572189 0.00323387 0)
(-0.00671322 0.00348769 0)
(-0.00776737 0.00371852 0)
(-0.00887858 0.003926 0)
(-0.010041 0.00411018 0)
(-0.0112487 0.00427138 0)
(-0.0124957 0.0044101 0)
(-0.0137764 0.00452696 0)
(-0.0150849 0.00462265 0)
(-0.0164157 0.00469786 0)
(-0.0177633 0.00475331 0)
(-0.0191223 0.00478963 0)
(-0.0204876 0.00480744 0)
(-0.021854 0.00480727 0)
(-0.0232166 0.0047896 0)
(-0.0245705 0.00475483 0)
(-0.0259108 0.00470328 0)
(-0.0272328 0.00463522 0)
(-0.0285319 0.00455087 0)
(-0.0298035 0.00445038 0)
(-0.031043 0.00433389 0)
(-0.0322459 0.00420149 0)
(-0.0334078 0.0040533 0)
(-0.0345242 0.0038894 0)
(-0.0355908 0.00370992 0)
(-0.0366032 0.00351499 0)
(-0.0375573 0.00330482 0)
(-0.0384489 0.00307964 0)
(-0.039274 0.00283979 0)
(-0.0400287 0.00258565 0)
(-0.0407092 0.00231771 0)
(-0.0413119 0.00203657 0)
(-0.0418334 0.00174292 0)
(-0.0422706 0.00143758 0)
(-0.0426205 0.00112147 0)
(-0.0428805 0.000795643 0)
(-0.0430484 0.000461286 0)
(-0.0431222 0.000119696 0)
(-0.0431002 -0.0002277 0)
(-0.0429814 -0.00057936 0)
(-0.0427649 -0.000933625 0)
(-0.0424505 -0.00128873 0)
(-0.0420384 -0.00164282 0)
(-0.0415293 -0.00199395 0)
(-0.0409244 -0.0023401 0)
(-0.0402255 -0.00267918 0)
(-0.039435 -0.00300909 0)
(-0.0385555 -0.00332768 0)
(-0.0375907 -0.00363281 0)
(-0.0365444 -0.00392233 0)
(-0.0354212 -0.00419415 0)
(-0.0342262 -0.00444623 0)
(-0.0329648 -0.00467661 0)
(-0.0316432 -0.00488342 0)
(-0.0302678 -0.00506494 0)
(-0.0288457 -0.00521957 0)
(-0.0273841 -0.00534588 0)
(-0.0258906 -0.00544265 0)
(-0.0243734 -0.00550882 0)
(-0.0228405 -0.00554361 0)
(-0.0213003 -0.00554642 0)
(-0.0197613 -0.00551695 0)
(-0.0182321 -0.00545513 0)
(-0.0167212 -0.00536118 0)
(-0.0152369 -0.0052356 0)
(-0.0137876 -0.00507918 0)
(-0.0123813 -0.00489301 0)
(-0.0110256 -0.00467845 0)
(-0.00972778 -0.00443721 0)
(-0.00849473 -0.00417125 0)
(-0.00733264 -0.0038829 0)
(-0.00624712 -0.00357476 0)
(-0.00524303 -0.00324979 0)
(-0.00432441 -0.00291129 0)
(-0.00349442 -0.00256293 0)
(-0.0027552 -0.0022088 0)
(-0.00210783 -0.00185343 0)
(-0.00155222 -0.00150185 0)
(-0.00108699 -0.00115971 0)
(-0.000709422 -0.000833292 0)
(-0.000415315 -0.000529697 0)
(-0.000198917 -0.000256921 0)
(-5.28172e-05 -2.40082e-05 0)
(3.21552e-05 0.000158807 0)
(6.70331e-05 0.00027996 0)
(6.47779e-05 0.000326418 0)
(4.03443e-05 0.000283512 0)
(9.774e-06 0.000134897 0)
(-1.61281e-05 -1.61187e-05 0)
(-9.31471e-05 9.87283e-05 0)
(-0.000244501 0.000329548 0)
(-0.000480118 0.000644593 0)
(-0.000807343 0.00101743 0)
(-0.00123013 0.00142665 0)
(-0.00175033 0.00185515 0)
(-0.00236799 0.00228947 0)
(-0.00308166 0.00271915 0)
(-0.00388863 0.00313623 0)
(-0.00478519 0.00353477 0)
(-0.00576676 0.00391048 0)
(-0.00682816 0.00426037 0)
(-0.00796369 0.00458249 0)
(-0.00916734 0.0048757 0)
(-0.0104329 0.0051395 0)
(-0.0117539 0.00537385 0)
(-0.0131239 0.00557906 0)
(-0.0145367 0.00575566 0)
(-0.0159857 0.00590437 0)
(-0.0174648 0.00602598 0)
(-0.0189677 0.00612129 0)
(-0.0204885 0.00619115 0)
(-0.0220212 0.00623634 0)
(-0.0235601 0.00625757 0)
(-0.0250994 0.0062555 0)
(-0.0266337 0.00623072 0)
(-0.0281574 0.00618371 0)
(-0.0296652 0.00611489 0)
(-0.0311518 0.00602459 0)
(-0.032612 0.00591309 0)
(-0.0340407 0.00578061 0)
(-0.0354327 0.00562732 0)
(-0.036783 0.00545339 0)
(-0.0380867 0.00525895 0)
(-0.0393387 0.00504417 0)
(-0.0405343 0.00480922 0)
(-0.0416686 0.00455432 0)
(-0.042737 0.00427975 0)
(-0.0437349 0.00398586 0)
(-0.0446577 0.0036731 0)
(-0.0455013 0.00334201 0)
(-0.0462615 0.00299325 0)
(-0.0469342 0.0026276 0)
(-0.0475158 0.00224599 0)
(-0.0480029 0.0018495 0)
(-0.0483922 0.00143933 0)
(-0.0486809 0.00101686 0)
(-0.0488665 0.000583619 0)
(-0.0489469 0.000141296 0)
(-0.0489205 -0.000308274 0)
(-0.0487858 -0.000763102 0)
(-0.0485423 -0.00122106 0)
(-0.0481896 -0.00167989 0)
(-0.0477279 -0.0021372 0)
(-0.0471582 -0.00259052 0)
(-0.0464819 -0.00303727 0)
(-0.0457008 -0.00347479 0)
(-0.0448175 -0.00390038 0)
(-0.0438353 -0.00431133 0)
(-0.042758 -0.0047049 0)
(-0.0415898 -0.00507838 0)
(-0.0403359 -0.00542909 0)
(-0.0390017 -0.00575446 0)
(-0.0375934 -0.00605198 0)
(-0.0361176 -0.0063193 0)
(-0.0345816 -0.00655421 0)
(-0.0329928 -0.0067547 0)
(-0.0313594 -0.00691896 0)
(-0.0296898 -0.00704542 0)
(-0.0279927 -0.00713276 0)
(-0.0262771 -0.00717996 0)
(-0.0245523 -0.00718629 0)
(-0.0228274 -0.00715135 0)
(-0.0211119 -0.00707507 0)
(-0.0194153 -0.00695772 0)
(-0.0177466 -0.00679995 0)
(-0.016115 -0.00660277 0)
(-0.0145294 -0.00636756 0)
(-0.0129982 -0.00609608 0)
(-0.0115294 -0.00579048 0)
(-0.0101305 -0.00545331 0)
(-0.00880843 -0.00508752 0)
(-0.00756943 -0.00469643 0)
(-0.00641886 -0.00428383 0)
(-0.00536126 -0.00385391 0)
(-0.00440019 -0.00341134 0)
(-0.00353815 -0.00296127 0)
(-0.00277647 -0.00250941 0)
(-0.00211527 -0.00206204 0)
(-0.00155332 -0.00162617 0)
(-0.00108797 -0.00120951 0)
(-0.000715093 -0.000820704 0)
(-0.000428951 -0.000469359 0)
(-0.000222155 -0.000166243 0)
(-8.5565e-05 7.65786e-05 0)
(-8.2029e-06 0.00024556 0)
(2.27924e-05 0.000325482 0)
(2.23154e-05 0.0002992 0)
(6.27516e-06 0.000147552 0)
(-2.28838e-05 2.26312e-05 0)
(-0.000127667 0.000222761 0)
(-0.000323655 0.000545514 0)
(-0.00061907 0.000957586 0)
(-0.00101953 0.00143084 0)
(-0.00152729 0.00194219 0)
(-0.00214277 0.00247295 0)
(-0.00286485 0.00300824 0)
(-0.00369111 0.00353636 0)
(-0.00461805 0.00404828 0)
(-0.00564126 0.00453719 0)
(-0.0067556 0.00499809 0)
(-0.00795531 0.00542746 0)
(-0.00923423 0.00582296 0)
(-0.0105858 0.00618316 0)
(-0.0120034 0.0065074 0)
(-0.0134801 0.00679556 0)
(-0.015009 0.00704791 0)
(-0.0165833 0.00726504 0)
(-0.018196 0.00744772 0)
(-0.0198404 0.00759684 0)
(-0.0215099 0.00771333 0)
(-0.023198 0.00779815 0)
(-0.0248981 0.0078522 0)
(-0.026604 0.00787632 0)
(-0.0283095 0.00787129 0)
(-0.0300085 0.00783778 0)
(-0.0316951 0.00777639 0)
(-0.0333633 0.00768761 0)
(-0.0350074 0.00757186 0)
(-0.0366217 0.00742947 0)
(-0.0382004 0.00726073 0)
(-0.039738 0.00706588 0)
(-0.041229 0.00684512 0)
(-0.0426679 0.00659868 0)
(-0.0440492 0.00632676 0)
(-0.0453678 0.00602962 0)
(-0.0466182 0.00570757 0)
(-0.0477956 0.005361 0)
(-0.0488947 0.00499037 0)
(-0.0499109 0.00459627 0)
(-0.0508393 0.00417941 0)
(-0.0516755 0.00374066 0)
(-0.0524152 0.00328102 0)
(-0.0530545 0.00280167 0)
(-0.0535895 0.00230397 0)
(-0.054017 0.00178945 0)
(-0.0543337 0.00125984 0)
(-0.054537 0.000717059 0)
(-0.0546248 0.000163213 0)
(-0.0545951 -0.000399407 0)
(-0.0544467 -0.000968329 0)
(-0.0541787 -0.00154091 0)
(-0.053791 -0.00211435 0)
(-0.0532839 -0.0026857 0)
(-0.0526583 -0.00325188 0)
(-0.0519156 -0.00380973 0)
(-0.0510582 -0.00435596 0)
(-0.0500887 -0.00488725 0)
(-0.0490106 -0.00540024 0)
(-0.0478281 -0.00589157 0)
(-0.0465459 -0.00635791 0)
(-0.0451693 -0.00679596 0)
(-0.0437045 -0.00720254 0)
(-0.042158 -0.0075746 0)
(-0.0405369 -0.00790922 0)
(-0.0388491 -0.00820369 0)
(-0.0371028 -0.00845555 0)
(-0.0353065 -0.00866255 0)
(-0.0334696 -0.00882276 0)
(-0.0316013 -0.00893458 0)
(-0.0297114 -0.00899673 0)
(-0.0278098 -0.00900832 0)
(-0.0259067 -0.00896885 0)
(-0.0240122 -0.00887822 0)
(-0.0221364 -0.00873679 0)
(-0.0202893 -0.00854534 0)
(-0.0184809 -0.00830511 0)
(-0.0167206 -0.0080178 0)
(-0.0150177 -0.0076856 0)
(-0.013381 -0.00731116 0)
(-0.0118186 -0.00689761 0)
(-0.0103381 -0.00644858 0)
(-0.0089462 -0.0059682 0)
(-0.00764896 -0.00546111 0)
(-0.00645138 -0.00493245 0)
(-0.00535744 -0.00438796 0)
(-0.00437003 -0.00383393 0)
(-0.00349084 -0.00327728 0)
(-0.00272023 -0.00272563 0)
(-0.00205724 -0.00218736 0)
(-0.00149942 -0.00167167 0)
(-0.0010428 -0.00118875 0)
(-0.000681843 -0.000749827 0)
(-0.000409323 -0.000367372 0)
(-0.000216316 -5.52335e-05 0)
(-9.21016e-05 0.000171162 0)
(-2.41457e-05 0.000294586 0)
(2.15385e-06 0.000295735 0)
(2.36836e-06 0.000153172 0)
(-2.96507e-05 7.39643e-05 0)
(-0.000162389 0.000380644 0)
(-0.000403636 0.000813249 0)
(-0.000759925 0.00133752 0)
(-0.00123507 0.00192414 0)
(-0.0018295 0.00254877 0)
(-0.00254207 0.0031915 0)
(-0.00337031 0.00383629 0)
(-0.00431071 0.00447041 0)
(-0.00535884 0.00508393 0)
(-0.00650952 0.00566928 0)
(-0.00775693 0.00622086 0)
(-0.00909474 0.00673465 0)
(-0.0105162 0.00720795 0)
(-0.0120144 0.0076391 0)
(-0.0135821 0.00802728 0)
(-0.0152119 0.00837226 0)
(-0.0168966 0.00867433 0)
(-0.0186287 0.00893409 0)
(-0.0204011 0.00915239 0)
(-0.0222064 0.00933019 0)
(-0.0240376 0.00946856 0)
(-0.0258876 0.00956855 0)
(-0.0277496 0.00963119 0)
(-0.0296168 0.00965745 0)
(-0.0314826 0.0096482 0)
(-0.0333403 0.00960423 0)
(-0.0351836 0.00952623 0)
(-0.0370061 0.00941478 0)
(-0.0388015 0.00927036 0)
(-0.0405636 0.0090934 0)
(-0.0422863 0.00888424 0)
(-0.0439635 0.00864318 0)
(-0.0455893 0.00837051 0)
(-0.0471578 0.00806651 0)
(-0.0486632 0.00773146 0)
(-0.0500996 0.00736571 0)
(-0.0514615 0.00696967 0)
(-0.0527433 0.00654384 0)
(-0.0539397 0.00608884 0)
(-0.0550455 0.00560541 0)
(-0.0560557 0.00509446 0)
(-0.0569653 0.00455706 0)
(-0.0577699 0.00399446 0)
(-0.0584652 0.00340813 0)
(-0.0590471 0.00279974 0)
(-0.0595121 0.00217117 0)
(-0.0598569 0.00152454 0)
(-0.0600786 0.000862182 0)
(-0.0601749 0.000186653 0)
(-0.0601439 -0.000499264 0)
(-0.0599842 -0.00119258 0)
(-0.0596949 -0.00189009 0)
(-0.0592759 -0.00258842 0)
(-0.0587274 -0.00328402 0)
(-0.0580505 -0.00397319 0)
(-0.0572468 -0.00465209 0)
(-0.0563187 -0.0053168 0)
(-0.0552691 -0.00596332 0)
(-0.0541017 -0.00658762 0)
(-0.052821 -0.00718566 0)
(-0.0514319 -0.00775343 0)
(-0.0499402 -0.00828699 0)
(-0.0483523 -0.00878252 0)
(-0.0466753 -0.00923635 0)
(-0.0449168 -0.00964498 0)
(-0.043085 -0.0100052 0)
(-0.0411888 -0.0103139 0)
(-0.0392375 -0.0105686 0)
(-0.0372406 -0.0107668 0)
(-0.0352083 -0.0109067 0)
(-0.033151 -0.0109866 0)
(-0.0310794 -0.0110056 0)
(-0.0290041 -0.010963 0)
(-0.0269361 -0.0108586 0)
(-0.0248863 -0.010693 0)
(-0.0228654 -0.010467 0)
(-0.020884 -0.010182 0)
(-0.0189524 -0.00984028 0)
(-0.0170805 -0.00944427 0)
(-0.0152778 -0.00899721 0)
(-0.0135531 -0.00850286 0)
(-0.0119147 -0.00796558 0)
(-0.0103698 -0.00739029 0)
(-0.00892512 -0.00678256 0)
(-0.00758608 -0.00614857 0)
(-0.00635721 -0.00549511 0)
(-0.00524182 -0.00482969 0)
(-0.00424199 -0.0041605 0)
(-0.00335846 -0.00349651 0)
(-0.00259058 -0.00284752 0)
(-0.00193621 -0.00222424 0)
(-0.00139167 -0.0016384 0)
(-0.000951713 -0.00110286 0)
(-0.00060944 -0.00063174 0)
(-0.000356279 -0.000240611 0)
(-0.000181922 5.33375e-05 0)
(-7.43274e-05 0.000231065 0)
(-1.9326e-05 0.000271424 0)
(-1.7768e-06 0.000151182 0)
(-3.63531e-05 0.000137834 0)
(-0.00019691 0.00057252 0)
(-0.000483499 0.00113322 0)
(-0.000901028 0.00178521 0)
(-0.00145151 0.00249841 0)
(-0.00213347 0.00324765 0)
(-0.00294409 0.0040121 0)
(-0.00387946 0.00477483 0)
(-0.00493486 0.00552231 0)
(-0.00610485 0.00624389 0)
(-0.00738336 0.00693137 0)
(-0.00876385 0.00757865 0)
(-0.0102393 0.0081813 0)
(-0.0118025 0.00873632 0)
(-0.0134459 0.00924185 0)
(-0.0151619 0.00969692 0)
(-0.0169425 0.0101013 0)
(-0.0187802 0.0104551 0)
(-0.0206671 0.0107592 0)
(-0.0225954 0.0110143 0)
(-0.0245577 0.0112216 0)
(-0.0265462 0.0113822 0)
(-0.0285537 0.0114973 0)
(-0.0305728 0.011568 0)
(-0.0325962 0.0115954 0)
(-0.034617 0.0115806 0)
(-0.0366281 0.0115243 0)
(-0.0386227 0.0114274 0)
(-0.040594 0.0112905 0)
(-0.0425352 0.0111143 0)
(-0.0444399 0.0108991 0)
(-0.0463013 0.0106455 0)
(-0.0481131 0.0103538 0)
(-0.0498688 0.0100243 0)
(-0.0515622 0.00965736 0)
(-0.053187 0.00925345 0)
(-0.0547371 0.00881297 0)
(-0.0562066 0.00833643 0)
(-0.0575894 0.00782448 0)
(-0.05888 0.00727787 0)
(-0.0600727 0.00669755 0)
(-0.0611622 0.00608462 0)
(-0.0621435 0.00544038 0)
(-0.0630116 0.00476637 0)
(-0.063762 0.00406436 0)
(-0.0643905 0.00333634 0)
(-0.0648933 0.00258458 0)
(-0.0652669 0.0018116 0)
(-0.0655083 0.00102018 0)
(-0.065615 0.000213375 0)
(-0.065585 -0.000605525 0)
(-0.0654169 -0.00143297 0)
(-0.0651097 -0.00226519 0)
(-0.0646632 -0.00309818 0)
(-0.0640778 -0.00392774 0)
(-0.0633545 -0.00474953 0)
(-0.062495 -0.00555901 0)
(-0.0615019 -0.00635157 0)
(-0.0603781 -0.0071225 0)
(-0.0591277 -0.00786705 0)
(-0.0577551 -0.00858046 0)
(-0.0562658 -0.00925803 0)
(-0.0546658 -0.00989511 0)
(-0.0529618 -0.0104872 0)
(-0.0511613 -0.01103 0)
(-0.0492723 -0.0115194 0)
(-0.0473035 -0.0119515 0)
(-0.0452642 -0.0123229 0)
(-0.0431641 -0.0126303 0)
(-0.0410137 -0.012871 0)