/*--------------------------------*- C++ -*----------------------------------*\
| =========                 |                                                 |
| \\      /  F ield         | OpenFOAM: The Open Source CFD Toolbox           |
|  \\    /   O peration     | Version:  4.1                                   |
|   \\  /    A nd           | Web:      www.OpenFOAM.org                      |
|    \\/     M anipulation  |                                                 |
\*---------------------------------------------------------------------------*/
FoamFile
{
    version     2.0;
    format      ascii;
    class       volVectorField;
    location    "0.25";
    object      U;
}
// * * * * * * * * * * * * * * * * * * * * * * * * * * * * * * * * * * * * * //

dimensions      [0 1 -1 0 0 0 0];

internalField   nonuniform List<vector> 
400
(
(-0.000203523 0.000202131 0)
(-0.00124687 0.000393486 0)
(-0.00267961 0.000442676 0)
(-0.00408493 0.000431739 0)
(-0.00540263 0.000393096 0)
(-0.00656366 0.000341088 0)
(-0.0075405 0.000278965 0)
(-0.00830487 0.000209148 0)
(-0.0088373 0.000133388 0)
(-0.00912305 5.34818e-05 0)
(-0.00915322 -2.87623e-05 0)
(-0.00892455 -0.000111431 0)
(-0.0084397 -0.000192455 0)
(-0.00770807 -0.000269516 0)
(-0.00674527 -0.000340106 0)
(-0.00557775 -0.00040082 0)
(-0.00423361 -0.00044718 0)
(-0.00278609 -0.000463234 0)
(-0.00130198 -0.000414453 0)
(-0.000215619 -0.000215742 0)
(-0.000407129 0.00124693 0)
(-0.00244168 0.00236911 0)
(-0.00502449 0.00262937 0)
(-0.00754193 0.00253408 0)
(-0.00988134 0.00229586 0)
(-0.0119366 0.00198076 0)
(-0.0136586 0.00161067 0)
(-0.0150004 0.00119809 0)
(-0.0159293 0.000753712 0)
(-0.0164214 0.000287859 0)
(-0.0164626 -0.000189071 0)
(-0.0160486 -0.000666329 0)
(-0.0151849 -0.00113246 0)
(-0.0138882 -0.00157501 0)
(-0.012186 -0.0019802 0)
(-0.0101222 -0.00233148 0)
(-0.00774675 -0.00260181 0)
(-0.00517121 -0.00271836 0)
(-0.00251742 -0.00245894 0)
(-0.000421502 -0.00130124 0)
(-0.000493032 0.00275468 0)
(-0.00292677 0.00500894 0)
(-0.00594798 0.00548371 0)
(-0.00888447 0.00525807 0)
(-0.011604 0.0047516 0)
(-0.0139892 0.00409099 0)
(-0.0159836 0.00331979 0)
(-0.0175353 0.00246334 0)
(-0.0186082 0.00154363 0)
(-0.0191761 0.0005817 0)
(-0.0192236 -0.000401512 0)
(-0.0187458 -0.0013845 0)
(-0.0177483 -0.00234442 0)
(-0.0162491 -0.00325643 0)
(-0.014278 -0.00409293 0)
(-0.0118835 -0.00482108 0)
(-0.00912246 -0.0053877 0)
(-0.00611833 -0.0056531 0)
(-0.00301442 -0.00517949 0)
(-0.000509111 -0.00285678 0)
(-0.000545494 0.00439741 0)
(-0.0032173 0.00787339 0)
(-0.00651499 0.00857368 0)
(-0.00971514 0.00820276 0)
(-0.0126713 0.00740236 0)
(-0.015259 0.0063657 0)
(-0.0174188 0.0051602 0)
(-0.0190977 0.00382545 0)
(-0.0202594 0.00239539 0)
(-0.0208776 0.000901856 0)
(-0.0209367 -0.000623834 0)
(-0.0204308 -0.00214974 0)
(-0.0193637 -0.00364176 0)
(-0.0177514 -0.00506244 0)
(-0.0156222 -0.00636941 0)
(-0.0130241 -0.00751167 0)
(-0.0100165 -0.00840663 0)
(-0.00673114 -0.00884028 0)
(-0.00332847 -0.00814159 0)
(-0.000565747 -0.00455678 0)
(-0.000599609 0.00620323 0)
(-0.00353319 0.0110044 0)
(-0.00714373 0.0119416 0)
(-0.0106393 0.0114039 0)
(-0.0138579 0.0102765 0)
(-0.016667 0.00882632 0)
(-0.0190058 0.00714786 0)
(-0.0208219 0.00529628 0)
(-0.0220803 0.00331787 0)
(-0.0227563 0.0012549 0)
(-0.0228342 -0.000851893 0)
(-0.0223063 -0.00296121 0)
(-0.0211737 -0.00502861 0)
(-0.0194476 -0.0070043 0)
(-0.0171518 -0.00883037 0)
(-0.0143314 -0.0104354 0)
(-0.0110461 -0.0117028 0)
(-0.00743682 -0.0123342 0)
(-0.00368432 -0.0114 0)
(-0.000627127 -0.00643771 0)
(-0.000670918 0.00819556 0)
(-0.00394541 0.0144542 0)
(-0.007964 0.0156441 0)
(-0.0118407 0.0149115 0)
(-0.0153937 0.0134146 0)
(-0.0184811 0.0115041 0)
(-0.0210419 0.00930593 0)
(-0.0230267 0.00689271 0)
(-0.0244044 0.00432331 0)
(-0.025153 0.00164934 0)
(-0.0252578 -0.00108085 0)
(-0.0247091 -0.00381883 0)
(-0.0235028 -0.00651172 0)
(-0.0216428 -0.0090985 0)
(-0.0191447 -0.0115051 0)
(-0.0160464 -0.0136369 0)
(-0.0124054 -0.0153362 0)
(-0.00837356 -0.0162064 0)
(-0.00415753 -0.0150231 0)
(-0.000709609 -0.00853294 0)
(-0.000765398 0.0104429 0)
(-0.00448737 0.0183332 0)
(-0.00903598 0.0197919 0)
(-0.0134004 0.0188212 0)
(-0.0173739 0.016894 0)
(-0.0208047 0.0144581 0)
(-0.0236345 0.011678 0)
(-0.0258211 0.00864561 0)
(-0.0273408 0.00543238 0)
(-0.0281779 0.00209725 0)
(-0.0283196 -0.00130699 0)
(-0.0277539 -0.00472849 0)
(-0.0264694 -0.00810938 0)
(-0.0244579 -0.0113798 0)
(-0.0217213 -0.0144493 0)
(-0.0182835 -0.0171973 0)
(-0.0141949 -0.0194148 0)
(-0.00961691 -0.0205874 0)
(-0.00479014 -0.019143 0)
(-0.000820819 -0.0109246 0)
(-0.00089015 0.0130209 0)
(-0.00519249 0.0227636 0)
(-0.0104177 0.0245046 0)
(-0.0153927 0.0232316 0)
(-0.0198793 0.0207896 0)
(-0.0237184 0.0177419 0)
(-0.0268596 0.0143008 0)
(-0.0292754 0.0105797 0)
(-0.0309555 0.00666216 0)
(-0.0318952 0.00261078 0)
(-0.0320863 -0.00152231 0)
(-0.0315142 -0.00568791 0)
(-0.0301571 -0.00982894 0)
(-0.0279886 -0.0138714 0)
(-0.0249879 -0.01771 0)
(-0.0211536 -0.0211952 0)
(-0.0165193 -0.0240528 0)
(-0.0112505 -0.0256241 0)
(-0.00563052 -0.0239135 0)
(-0.000970923 -0.0137091 0)
(-0.00105585 0.0160322 0)
(-0.00610876 0.0279017 0)
(-0.0121891 0.0299289 0)
(-0.0179158 0.0282558 0)
(-0.0230112 0.0251808 0)
(-0.0273173 0.0214058 0)
(-0.0308007 0.0172045 0)
(-0.0334609 0.0127131 0)
(-0.0353106 0.00802566 0)
(-0.0363632 0.0032022 0)
(-0.0366191 -0.00171375 0)
(-0.0360614 -0.00668504 0)
(-0.0346542 -0.0116648 0)
(-0.0323442 -0.0165833 0)
(-0.0290753 -0.0213248 0)
(-0.0248019 -0.0257101 0)
(-0.0195244 -0.0293816 0)
(-0.0133958 -0.0315004 0)
(-0.00675216 -0.0295362 0)
(-0.00117595 -0.017019 0)
(-0.00127963 0.0196041 0)
(-0.00731116 0.0339343 0)
(-0.0144695 0.0362312 0)
(-0.02111 0.0340098 0)
(-0.026907 0.0301375 0)
(-0.031723 0.0254835 0)
(-0.0355568 0.0204011 0)
(-0.0384554 0.0150486 0)
(-0.0404672 0.00952636 0)
(-0.0416354 0.00388222 0)
(-0.0419743 -0.00186073 0)
(-0.0414661 -0.00769123 0)
(-0.040057 -0.0135869 0)
(-0.037655 -0.0194973 0)
(-0.0341523 -0.0253052 0)
(-0.0294283 -0.0308075 0)
(-0.0234231 -0.0355398 0)
(-0.0162397 -0.0384381 0)
(-0.00827474 -0.0362709 0)
(-0.00146352 -0.0210353 0)
(-0.00159433 0.02394 0)
(-0.00892033 0.0411316 0)
(-0.0174366 0.0436365 0)
(-0.0251739 0.0406318 0)
(-0.0317496 0.0357266 0)
(-0.0370873 0.0299903 0)
(-0.041241 0.023879 0)
(-0.0443371 0.0175673 0)
(-0.0464779 0.0111537 0)
(-0.0477511 0.00465817 0)
(-0.0481935 -0.00193349 0)
(-0.0477886 -0.00865564 0)
(-0.0464622 -0.0155317 0)
(-0.0440703 -0.0225538 0)
(-0.0404325 -0.0296232 0)
(-0.0353069 -0.0365299 0)
(-0.0285303 -0.0426785 0)
(-0.0200762 -0.0467275 0)
(-0.0104021 -0.0444864 0)
(-0.00188592 -0.0260389 0)
(-0.00205271 0.0292718 0)
(-0.0111433 0.0497755 0)
(-0.0213779 0.0523505 0)
(-0.0304123 0.0482079 0)
(-0.0378003 0.0419492 0)
(-0.0436098 0.034874 0)
(-0.0479854 0.0275681 0)
(-0.0511815 0.020206 0)
(-0.0533766 0.0128695 0)
(-0.0547225 0.00552877 0)
(-0.0552881 -0.00189008 0)
(-0.0550643 -0.0094926 0)
(-0.0539561 -0.0173767 0)
(-0.0517549 -0.0256133 0)
(-0.0481859 -0.0341569 0)
(-0.0428193 -0.042833 0)
(-0.0353247 -0.0508997 0)
(-0.0253866 -0.0566911 0)
(-0.0134986 -0.0546606 0)
(-0.00253993 -0.032438 0)
(-0.00277557 0.0361664 0)
(-0.0143234 0.0604722 0)
(-0.0267106 0.0627974 0)
(-0.0372321 0.0569157 0)
(-0.0453761 0.0488187 0)
(-0.0515079 0.0400516 0)
(-0.0559086 0.0313531 0)
(-0.0590287 0.0228591 0)
(-0.0611467 0.0146062 0)
(-0.0625013 0.00648143 0)
(-0.0632046 -0.0016782 0)
(-0.0632643 -0.0100814 0)
(-0.0625722 -0.0189381 0)
(-0.060848 -0.0284499 0)
(-0.0577106 -0.0386856 0)
(-0.0524567 -0.0495931 0)
(-0.044505 -0.0603012 0)
(-0.0329501 -0.0688105 0)
(-0.0182328 -0.0676022 0)
(-0.00363073 -0.0410252 0)
(-0.00395023 0.0450006 0)
(-0.0191315 0.0734741 0)
(-0.0342052 0.0749966 0)
(-0.0463375 0.0665387 0)
(-0.0549707 0.0560178 0)
(-0.0610739 0.0451868 0)
(-0.0651237 0.0349379 0)
(-0.0678605 0.0253009 0)
(-0.0696797 0.0162252 0)
(-0.0709263 0.00747509 0)
(-0.0717645 -0.00123136 0)
(-0.0722312 -0.0102368 0)
(-0.0722255 -0.0199019 0)
(-0.0714048 -0.0306231 0)
(-0.0692983 -0.0426759 0)
(-0.0648354 -0.0562909 0)
(-0.057099 -0.0705776 0)
(-0.044053 -0.0833291 0)
(-0.0258558 -0.0841838 0)
(-0.0055417 -0.0529246 0)
(-0.00604892 0.0579717 0)
(-0.0265351 0.0906246 0)
(-0.0446803 0.0900192 0)
(-0.0582898 0.0773791 0)
(-0.0667944 0.0634403 0)
(-0.072247 0.0499933 0)
(-0.0753575 0.0380081 0)
(-0.0772573 0.0272677 0)
(-0.0784533 0.0175508 0)
(-0.0794053 0.00844168 0)
(-0.0803302 -0.000495223 0)
(-0.0813106 -0.00976489 0)
(-0.0822903 -0.0199163 0)
(-0.0829073 -0.031616 0)
(-0.0826833 -0.0454795 0)
(-0.0801307 -0.0622907 0)
(-0.0739988 -0.0814381 0)
(-0.060283 -0.100948 0)
(-0.0384034 -0.106486 0)
(-0.0090731 -0.0710068 0)
(-0.00978918 0.0748118 0)
(-0.0387923 0.110661 0)
(-0.0598153 0.106074 0)
(-0.0739055 0.0876065 0)
(-0.0806183 0.0695214 0)
(-0.0840418 0.0532731 0)
(-0.0850867 0.0397002 0)
(-0.0853481 0.0281775 0)
(-0.0853664 0.0182271 0)
(-0.0856763 0.00922118 0)
(-0.0865174 0.000564583 0)
(-0.0880223 -0.00840062 0)
(-0.0902316 -0.0184076 0)
(-0.0928464 -0.0304264 0)
(-0.0955631 -0.0455379 0)
(-0.0965352 -0.0654406 0)
(-0.0944375 -0.0904348 0)
(-0.0822142 -0.11995 0)
(-0.0581264 -0.135019 0)
(-0.0152434 -0.0982998 0)
(-0.016301 0.105831 0)
(-0.055682 0.139907 0)
(-0.076216 0.126023 0)
(-0.0874033 0.097661 0)
(-0.0890882 0.0737532 0)
(-0.0881989 0.0542884 0)
(-0.0855212 0.0393235 0)
(-0.0830036 0.0274863 0)
(-0.0810359 0.01786 0)
(-0.0801138 0.00955559 0)
(-0.0804233 0.00181753 0)
(-0.0821133 -0.00613191 0)
(-0.0853494 -0.0151737 0)
(-0.0899805 -0.0265726 0)
(-0.0961552 -0.041982 0)
(-0.101948 -0.0644345 0)
(-0.106901 -0.0961618 0)
(-0.100444 -0.140252 0)
(-0.080987 -0.173878 0)
(-0.0243481 -0.144474 0)
(-0.0265397 0.137927 0)
(-0.0762605 0.163377 0)
(-0.0800423 0.135921 0)
(-0.0768492 0.0979673 0)
(-0.0647404 0.0699509 0)
(-0.0542124 0.049319 0)
(-0.0444681 0.0346303 0)
(-0.0370978 0.0238232 0)
(-0.0317833 0.0155691 0)
(-0.0286403 0.00884301 0)
(-0.027595 0.00284315 0)
(-0.0286911 -0.00318398 0)
(-0.0321781 -0.0100916 0)
(-0.0380865 -0.0191926 0)
(-0.0472909 -0.0324488 0)
(-0.0582017 -0.0540175 0)
(-0.0730232 -0.0886604 0)
(-0.0786568 -0.145754 0)
(-0.0809558 -0.204964 0)
(-0.0276776 -0.201115 0)
(-0.017982 0.215499 0)
(-0.0271178 0.189425 0)
(0.022333 0.134725 0)
(0.0572255 0.0854837 0)
(0.0909165 0.0552931 0)
(0.114627 0.03638 0)
(0.132855 0.0242422 0)
(0.145707 0.0162162 0)
(0.154696 0.0105849 0)
(0.160424 0.00635621 0)
(0.163399 0.00282164 0)
(0.163836 -0.000592826 0)
(0.161565 -0.00455163 0)
(0.156498 -0.0101045 0)
(0.147132 -0.0191909 0)
(0.13414 -0.0361464 0)
(0.110705 -0.0680967 0)
(0.0862391 -0.131566 0)
(0.0304736 -0.218096 0)
(0.0145536 -0.267948 0)
(0.214084 0.132273 0)
(0.298655 0.0968901 0)
(0.436232 0.0588761 0)
(0.504747 0.0344886 0)
(0.553044 0.019866 0)
(0.582609 0.0118596 0)
(0.602087 0.00723393 0)
(0.614819 0.00454768 0)
(0.623239 0.00287883 0)
(0.628634 0.00177347 0)
(0.631754 0.000947672 0)
(0.632941 0.000220447 0)
(0.632143 -0.000608389 0)
(0.628984 -0.00177754 0)
(0.621935 -0.00388582 0)
(0.609094 -0.00795905 0)
(0.581413 -0.0164432 0)
(0.534647 -0.0349831 0)
(0.411488 -0.0691643 0)
(0.262191 -0.128294 0)
)
;

boundaryField
{
    movingWall
    {
        type            fixedValue;
        value           uniform (1 0 0);
    }
    fixedWalls
    {
        type            noSlip;
    }
    frontAndBack
    {
        type            empty;
    }
}


// ************************************************************************* //
