/*--------------------------------*- C++ -*----------------------------------*\
| =========                 |                                                 |
| \\      /  F ield         | OpenFOAM: The Open Source CFD Toolbox           |
|  \\    /   O peration     | Version:  4.1                                   |
|   \\  /    A nd           | Web:      www.OpenFOAM.org                      |
|    \\/     M anipulation  |                                                 |
\*---------------------------------------------------------------------------*/
FoamFile
{
    version     2.0;
    format      ascii;
    class       volScalarField;
    location    "0.0067";
    object      p;
}
// * * * * * * * * * * * * * * * * * * * * * * * * * * * * * * * * * * * * * //

dimensions      [1 -1 -2 0 0 0 0];

internalField   nonuniform List<scalar> 
441
(
100000
99999.9
99999.8
99999.8
99999.9
99999.5
99999.9
100000
100000
100001
100001
100001
100001
100001
100001
100001
100001
100001
100001
100001
100001
100000
100000
100000
100000
100000
100000
100000
100000
100000
100000
100000
100000
100000
100001
100000
100001
100000
100001
100000
100001
100000
100000
99999.9
100000
99999.9
100000
99999.9
100000
100000
100000
100001
100001
100001
100001
100001
100001
100001
100001
100001
100001
100001
100000
100000
100000
100000
100000
100000
100000
100000
100000
100000
100000
100000
100000
100000
100001
100001
100001
100001
100001
100000
100001
100000
100000
99999.7
99999.9
99999.8
99999.9
99999.9
100000
100000
100000
100000
100000
100001
100001
100001
100001
100001
100001
100001
100001
100001
100001
99999.3
99999.8
99999.6
99999.8
99999.8
99999.9
100000
100000
100000
100000
100000
100000
100001
100001
100001
100001
100001
100001
100001
100001
100000
99999
99999.2
99999.3
99999.4
99999.5
99999.6
99999.7
99999.9
100000
100000
100000
100001
100001
100001
100001
100001
100001
100001
100001
100001
100000
99999.1
99999.1
99999.1
99999.2
99999.3
99999.5
99999.6
99999.8
99999.9
100000
100000
100001
100001
100001
100001
100001
100001
100001
100001
100001
100001
99998.5
99998.5
99998.5
99998.7
99998.8
99999
99999.2
99999.5
99999.7
100000
100000
100001
100001
100001
100001
100002
100002
100002
100001
100002
100001
99998.3
99998.2
99998.3
99998.4
99998.5
99998.8
99998.9
99999.3
99999.5
99999.9
100000
100001
100001
100001
100001
100002
100002
100002
100002
100002
100001
99997.4
99997.3
99997.4
99997.6
99997.7
99998.1
99998.4
99998.8
99999.2
99999.6
100000
100001
100001
100002
100002
100002
100003
100003
100003
100003
100003
99997.1
99997
99997
99997.2
99997.3
99997.7
99998
99998.4
99998.8
99999.4
99999.9
100000
100001
100002
100002
100003
100003
100003
100003
100003
100003
99995.7
99995.6
99995.6
99996
99996.1
99996.7
99997.1
99997.7
99998.3
99999
99999.8
100000
100001
100002
100003
100003
100004
100004
100004
100005
100002
99995.3
99995.3
99995.1
99995.6
99995.6
99996.2
99996.5
99997.2
99997.8
99998.6
99999.4
100000
100001
100002
100003
100004
100004
100005
100005
100005
100003
99992.9
99993.1
99992.9
99993.8
99993.8
99994.9
99995.3
99996.3
99997
99998
99999.1
100000
100001
100002
100004
100005
100006
100007
100008
100007
100004
99992.8
99993
99992.5
99993.4
99993.2
99994.2
99994.5
99995.6
99996.3
99997.4
99998.5
99999.5
100001
100002
100004
100004
100006
100007
100007
100008
100000
99988.2
99989.5
99988.7
99990.8
99990.7
99992.5
99992.9
99994.4
99995.4
99996.7
99998.1
99999.2
100001
100002
100005
100005
100010
100009
100017
100011
100028
99988.6
99990
99988.6
99990.6
99990
99991.8
99992.1
99993.7
99994.7
99995.9
99997.4
99998.4
100000
100001
100004
100004
100009
100009
100016
100016
100027
99977.1
99984.4
99982.3
99987.4
99986.9
99990
99990.6
99992.7
99993.9
99995.4
99997.1
99998.2
100001
100001
100005
100005
100011
100011
100023
100024
100040
99977.9
99986.5
99983.6
99987.9
99987
99989.8
99990.3
99992.4
99993.6
99995.1
99996.7
99997.8
100000
100000
100004
100004
100010
100010
100022
100025
100045
99936.3
99979.7
99977.7
99987.9
99986.7
99990.4
99990.7
99992.8
99993.9
99995.3
99997
99998
100000
100001
100005
100005
100013
100014
100035
100043
100100
)
;

boundaryField
{
    movingWall
    {
        type            zeroGradient;
    }
    fixedWalls
    {
        type            zeroGradient;
    }
    frontAndBack
    {
        type            empty;
    }
}


// ************************************************************************* //
