/*--------------------------------*- C++ -*----------------------------------*\
| =========                 |                                                 |
| \\      /  F ield         | OpenFOAM: The Open Source CFD Toolbox           |
|  \\    /   O peration     | Version:  4.1                                   |
|   \\  /    A nd           | Web:      www.OpenFOAM.org                      |
|    \\/     M anipulation  |                                                 |
\*---------------------------------------------------------------------------*/
FoamFile
{
    version     2.0;
    format      ascii;
    class       volVectorField;
    location    "0.122";
    object      U;
}
// * * * * * * * * * * * * * * * * * * * * * * * * * * * * * * * * * * * * * //

dimensions      [0 1 -1 0 0 0 0];

internalField   nonuniform List<vector> 
100
(
(-0.00166179 0.000978132 0)
(-0.0046695 0.0012247 0)
(-0.0121251 0.00145567 0)
(-0.0159377 0.000526801 0)
(-0.0200423 0.000195015 0)
(-0.0209055 -0.00122869 0)
(-0.0189465 -0.0018303 0)
(-0.0153241 -0.00328452 0)
(-0.00664141 -0.00324204 0)
(-0.00255109 -0.00279639 0)
(-0.00310614 0.00541005 0)
(-0.010644 0.00916397 0)
(-0.0243992 0.0101212 0)
(-0.0321296 0.00716029 0)
(-0.0392402 0.0051927 0)
(-0.0406743 -0.000165203 0)
(-0.0370335 -0.00337175 0)
(-0.0296826 -0.00929063 0)
(-0.0140573 -0.00936453 0)
(-0.00425229 -0.00637355 0)
(-0.00384153 0.0147246 0)
(-0.0135414 0.022291 0)
(-0.0302055 0.0231888 0)
(-0.0399134 0.0149104 0)
(-0.0489877 0.00904021 0)
(-0.0513548 -0.00401664 0)
(-0.0480243 -0.0126454 0)
(-0.0393164 -0.0268772 0)
(-0.0201268 -0.0287965 0)
(-0.0062167 -0.0214121 0)
(-0.00605676 0.0226409 0)
(-0.0189692 0.0352596 0)
(-0.0401933 0.0367283 0)
(-0.0528955 0.0256369 0)
(-0.0645782 0.0172178 0)
(-0.0688976 -0.00129915 0)
(-0.0666639 -0.0146272 0)
(-0.0568613 -0.0371435 0)
(-0.0323534 -0.0417589 0)
(-0.0104545 -0.0321897 0)
(-0.00712086 0.0399776 0)
(-0.0221077 0.0560886 0)
(-0.0465551 0.0576432 0)
(-0.0618359 0.0385348 0)
(-0.0770443 0.0254892 0)
(-0.0846638 -0.00299453 0)
(-0.0865802 -0.0245637 0)
(-0.0781979 -0.0625313 0)
(-0.0503494 -0.0757635 0)
(-0.0171256 -0.0652653 0)
(-0.0140179 0.0513089 0)
(-0.0357597 0.0740417 0)
(-0.0662108 0.0766697 0)
(-0.0860588 0.0555359 0)
(-0.10438 0.0409471 0)
(-0.116289 0.00798591 0)
(-0.123925 -0.0196351 0)
(-0.117966 -0.0731088 0)
(-0.0860805 -0.101253 0)
(-0.0308686 -0.0985622 0)
(-0.0156224 0.0906655 0)
(-0.0389654 0.107532 0)
(-0.070944 0.109179 0)
(-0.0913267 0.0752714 0)
(-0.11124 0.0565277 0)
(-0.124365 0.014526 0)
(-0.139617 -0.0226549 0)
(-0.138582 -0.10306 0)
(-0.114672 -0.164155 0)
(-0.0443246 -0.185537 0)
(-0.0403635 0.104124 0)
(-0.0741673 0.127875 0)
(-0.0906026 0.12934 0)
(-0.100362 0.0947282 0)
(-0.105385 0.0755472 0)
(-0.107825 0.0357866 0)
(-0.123801 -0.00266042 0)
(-0.121718 -0.0973499 0)
(-0.11987 -0.191523 0)
(-0.0515934 -0.255531 0)
(-0.0360178 0.208144 0)
(-0.0278905 0.155904 0)
(-0.000585175 0.138689 0)
(0.0318454 0.0877582 0)
(0.0549671 0.0658675 0)
(0.0869625 0.0297355 0)
(0.086088 -0.0072884 0)
(0.0990784 -0.110951 0)
(0.039096 -0.234731 0)
(0.0107304 -0.365549 0)
(0.148533 0.162324 0)
(0.237538 0.0898499 0)
(0.382578 0.0715525 0)
(0.452855 0.0386504 0)
(0.505282 0.0239871 0)
(0.545246 0.00516981 0)
(0.538389 -0.00805347 0)
(0.533261 -0.0451598 0)
(0.380797 -0.0891262 0)
(0.212134 -0.191654 0)
)
;

boundaryField
{
    movingWall
    {
        type            fixedValue;
        value           uniform (1 0 0);
    }
    fixedWalls
    {
        type            noSlip;
    }
    frontAndBack
    {
        type            empty;
    }
}


// ************************************************************************* //
