/*--------------------------------*- C++ -*----------------------------------*\
| =========                 |                                                 |
| \\      /  F ield         | OpenFOAM: The Open Source CFD Toolbox           |
|  \\    /   O peration     | Version:  4.1                                   |
|   \\  /    A nd           | Web:      www.OpenFOAM.org                      |
|    \\/     M anipulation  |                                                 |
\*---------------------------------------------------------------------------*/
FoamFile
{
    version     2.0;
    format      ascii;
    class       volVectorField;
    location    "7.75";
    object      U;
}
// * * * * * * * * * * * * * * * * * * * * * * * * * * * * * * * * * * * * * //

dimensions      [0 1 -1 0 0 0 0];

internalField   nonuniform List<vector> 
400
(
(0.000193471 -0.000190615 0)
(-9.94395e-05 8.61432e-05 0)
(-0.00152786 0.000328978 0)
(-0.00369203 0.00050769 0)
(-0.00636144 0.000594683 0)
(-0.00920443 0.000623652 0)
(-0.0120007 0.000599487 0)
(-0.014512 0.00052639 0)
(-0.0165154 0.000398369 0)
(-0.0177795 0.000213591 0)
(-0.0181006 -2.16584e-05 0)
(-0.0173427 -0.000285839 0)
(-0.0154883 -0.00054209 0)
(-0.0126883 -0.000740557 0)
(-0.00926721 -0.000832639 0)
(-0.00572268 -0.000778907 0)
(-0.00259457 -0.000580971 0)
(-0.000431868 -0.000259273 0)
(0.000534776 6.70866e-05 0)
(0.000309693 0.000294856 0)
(-8.98995e-05 9.0198e-05 0)
(-0.00202824 0.00190797 0)
(-0.00636376 0.00359506 0)
(-0.0122097 0.00480162 0)
(-0.0190719 0.0054176 0)
(-0.026233 0.0055323 0)
(-0.0331486 0.00518378 0)
(-0.0392424 0.00439119 0)
(-0.0439799 0.00315279 0)
(-0.0468463 0.0014977 0)
(-0.0474218 -0.000480847 0)
(-0.0454587 -0.00259829 0)
(-0.0409728 -0.00458103 0)
(-0.0343252 -0.00609627 0)
(-0.0262257 -0.00682563 0)
(-0.0177223 -0.00654462 0)
(-0.0099552 -0.00525174 0)
(-0.00408467 -0.00316971 0)
(-0.000637594 -0.00095459 0)
(0.000171409 0.000567176 0)
(-0.000412077 0.00165004 0)
(-0.00427767 0.00636786 0)
(-0.0115543 0.0103439 0)
(-0.0207836 0.0130734 0)
(-0.0312634 0.0144124 0)
(-0.0420035 0.0144984 0)
(-0.0522393 0.0134063 0)
(-0.0611632 0.0111814 0)
(-0.0680351 0.00785694 0)
(-0.0721612 0.00354709 0)
(-0.0729907 -0.00148551 0)
(-0.0702055 -0.0067843 0)
(-0.0638261 -0.0117084 0)
(-0.0543121 -0.0155011 0)
(-0.0425749 -0.0174389 0)
(-0.0299941 -0.0170134 0)
(-0.0181168 -0.0141905 0)
(-0.00861284 -0.00947418 0)
(-0.00234056 -0.00420239 0)
(-1.82593e-05 -3.84764e-05 0)
(-0.000727992 0.00436153 0)
(-0.00648675 0.0131716 0)
(-0.0165846 0.0200046 0)
(-0.0289323 0.0244674 0)
(-0.0426304 0.0265198 0)
(-0.0564734 0.0263888 0)
(-0.0695583 0.024203 0)
(-0.0809343 0.0200434 0)
(-0.0897364 0.0139938 0)
(-0.0951542 0.00627557 0)
(-0.096532 -0.00265171 0)
(-0.0934568 -0.0120251 0)
(-0.0858708 -0.0207881 0)
(-0.0741992 -0.0276873 0)
(-0.0593995 -0.0314896 0)
(-0.0430555 -0.0312769 0)
(-0.0270651 -0.0268692 0)
(-0.013682 -0.0190004 0)
(-0.00424038 -0.00971188 0)
(-0.000209997 -0.00154149 0)
(-0.00099761 0.00819604 0)
(-0.00846806 0.0222882 0)
(-0.0211473 0.0325295 0)
(-0.0363273 0.0389002 0)
(-0.0529219 0.0416275 0)
(-0.0695513 0.0410972 0)
(-0.0852339 0.0375227 0)
(-0.0989424 0.0310302 0)
(-0.109745 0.0217566 0)
(-0.116748 0.0100245 0)
(-0.119186 -0.00352064 0)
(-0.116495 -0.0178185 0)
(-0.108433 -0.0313852 0)
(-0.0952453 -0.0424113 0)
(-0.0777787 -0.049022 0)
(-0.0577108 -0.049688 0)
(-0.037279 -0.043857 0)
(-0.0194768 -0.0323397 0)
(-0.00634116 -0.0178819 0)
(-0.000386812 -0.00403376 0)
(-0.00122681 0.0129761 0)
(-0.010169 0.0333925 0)
(-0.0250928 0.0475229 0)
(-0.0427431 0.0559446 0)
(-0.0618746 0.0593172 0)
(-0.0809783 0.0582705 0)
(-0.0990458 0.0531436 0)
(-0.115031 0.0441151 0)
(-0.127986 0.0313589 0)
(-0.136963 0.01526 0)
(-0.141081 -0.003408 0)
(-0.139577 -0.0233504 0)
(-0.131923 -0.0426949 0)
(-0.11803 -0.0590482 0)
(-0.0984474 -0.0697501 0)
(-0.0747753 -0.0723795 0)
(-0.0495173 -0.0656364 0)
(-0.0265516 -0.0500983 0)
(-0.00891367 -0.0291568 0)
(-0.000598871 -0.0076315 0)
(-0.00140624 0.018555 0)
(-0.0115263 0.0461869 0)
(-0.0282685 0.0646305 0)
(-0.0479322 0.075246 0)
(-0.0691491 0.0792756 0)
(-0.0903299 0.0776797 0)
(-0.110486 0.0709695 0)
(-0.128609 0.0593825 0)
(-0.143784 0.0431023 0)
(-0.155051 0.0225146 0)
(-0.161435 -0.00157031 0)
(-0.16196 -0.0277336 0)
(-0.155747 -0.0538107 0)
(-0.142237 -0.0768541 0)
(-0.121464 -0.0933016 0)
(-0.0946795 -0.0995123 0)
(-0.0644306 -0.0928951 0)
(-0.0355086 -0.0732407 0)
(-0.0122809 -0.0443549 0)
(-0.000895299 -0.0126604 0)
(-0.00153108 0.0247286 0)
(-0.0124874 0.060257 0)
(-0.0305345 0.0833458 0)
(-0.0516382 0.0962744 0)
(-0.0743431 0.100999 0)
(-0.0970287 0.0988958 0)
(-0.11877 0.090699 0)
(-0.13865 0.0767147 0)
(-0.155849 0.0571091 0)
(-0.16946 0.0321978 0)
(-0.178476 0.00271354 0)
(-0.181756 -0.0299521 0)
(-0.178079 -0.0635093 0)
(-0.166334 -0.0945857 0)
(-0.145829 -0.118705 0)
(-0.117095 -0.130714 0)
(-0.0822896 -0.126045 0)
(-0.0468749 -0.102793 0)
(-0.0168079 -0.0645443 0)
(-0.00134293 -0.0196165 0)
(-0.00159836 0.0312864 0)
(-0.0130179 0.0751552 0)
(-0.0317839 0.103098 0)
(-0.0536351 0.118398 0)
(-0.077057 0.123842 0)
(-0.100446 0.1213 0)
(-0.122978 0.111791 0)
(-0.143886 0.0957107 0)
(-0.162513 0.073192 0)
(-0.178092 0.04442 0)
(-0.189692 0.00993817 0)
(-0.196126 -0.029063 0)
(-0.195932 -0.0704017 0)
(-0.187476 -0.110541 0)
(-0.169211 -0.144264 0)
(-0.140555 -0.164799 0)
(-0.102631 -0.164891 0)
(-0.0609049 -0.139636 0)
(-0.0228611 -0.0910188 0)
(-0.002024 -0.0292181 0)
(-0.00161623 0.0379932 0)
(-0.0131424 0.0903698 0)
(-0.0320122 0.123206 0)
(-0.0538235 0.140818 0)
(-0.0770198 0.146929 0)
(-0.100064 0.143981 0)
(-0.122273 0.13335 0)
(-0.143085 0.115555 0)
(-0.162076 0.0907047 0)
(-0.178721 0.0588221 0)
(-0.192299 0.0201761 0)
(-0.201749 -0.024408 0)
(-0.205565 -0.0731257 0)
(-0.201755 -0.122659 0)
(-0.187965 -0.167474 0)
(-0.162224 -0.199413 0)
(-0.12391 -0.208078 0)
(-0.0773316 -0.184 0)
(-0.0307748 -0.125071 0)
(-0.00305276 -0.0424012 0)
(-0.0016207 0.044692 0)
(-0.0129903 0.105465 0)
(-0.031386 0.143004 0)
(-0.0523236 0.16266 0)
(-0.0742132 0.169223 0)
(-0.0956539 0.165781 0)
(-0.116142 0.154149 0)
(-0.135388 0.135018 0)
(-0.15326 0.108508 0)
(-0.169567 0.0744829 0)
(-0.183928 0.0329001 0)
(-0.195594 -0.0158964 0)
(-0.203268 -0.0707259 0)
(-0.204898 -0.128933 0)
(-0.197595 -0.185312 0)
(-0.178001 -0.231022 0)
(-0.143258 -0.252658 0)
(-0.0950285 -0.234837 0)
(-0.0407497 -0.167637 0)
(-0.0045881 -0.0603318 0)
(-0.00167992 0.0512606 0)
(-0.0128649 0.120014 0)
(-0.0303562 0.161774 0)
(-0.0496147 0.182917 0)
(-0.0690274 0.189486 0)
(-0.0874497 0.185285 0)
(-0.104618 0.172658 0)
(-0.120584 0.152512 0)
(-0.135564 0.125029 0)
(-0.149764 0.0899476 0)
(-0.16323 0.0469316 0)
(-0.175673 -0.00419329 0)
(-0.18625 -0.0630253 0)
(-0.193204 -0.12796 0)
(-0.193598 -0.194857 0)
(-0.183073 -0.255329 0)
(-0.156554 -0.293976 0)
(-0.111681 -0.289138 0)
(-0.052647 -0.218677 0)
(-0.00684227 -0.0843367 0)
(-0.00195425 0.0580241 0)
(-0.0133035 0.134087 0)
(-0.0296676 0.17914 0)
(-0.0465058 0.200726 0)
(-0.0622069 0.206489 0)
(-0.0760932 0.200997 0)
(-0.0882255 0.187202 0)
(-0.0990922 0.166249 0)
(-0.109286 0.138416 0)
(-0.119436 0.103363 0)
(-0.130047 0.0605147 0)
(-0.141354 0.00922781 0)
(-0.153139 -0.0508885 0)
(-0.164266 -0.119491 0)
(-0.172342 -0.194123 0)
(-0.172719 -0.268187 0)
(-0.158847 -0.326191 0)
(-0.123606 -0.341584 0)
(-0.065617 -0.276416 0)
(-0.0100643 -0.115775 0)
(-0.00269302 0.0652463 0)
(-0.0152849 0.147566 0)
(-0.03061 0.194454 0)
(-0.0443403 0.214897 0)
(-0.0549318 0.218686 0)
(-0.0625845 0.211166 0)
(-0.0678089 0.195924 0)
(-0.0716594 0.174309 0)
(-0.0751157 0.146695 0)
(-0.0792226 0.11269 0)
(-0.0849072 0.0715585 0)
(-0.0929146 0.0223014 0)
(-0.103709 -0.0361291 0)
(-0.116973 -0.104603 0)
(-0.131407 -0.182637 0)
(-0.142922 -0.266574 0)
(-0.144928 -0.343267 0)
(-0.125817 -0.384707 0)
(-0.0775863 -0.336443 0)
(-0.0144598 -0.155541 0)
(-0.00444318 0.0751948 0)
(-0.0200897 0.162145 0)
(-0.0344333 0.208227 0)
(-0.0441091 0.224764 0)
(-0.0477751 0.224706 0)
(-0.0471603 0.21404 0)
(-0.0433618 0.196905 0)
(-0.0381503 0.174697 0)
(-0.0328761 0.147805 0)
(-0.0289603 0.115777 0)
(-0.0276775 0.0777664 0)
(-0.0302023 0.0325653 0)
(-0.0376376 -0.0212988 0)
(-0.0505142 -0.0856148 0)
(-0.0689825 -0.161718 0)
(-0.0902498 -0.249456 0)
(-0.109525 -0.340343 0)
(-0.112089 -0.409956 0)
(-0.0845452 -0.391358 0)
(-0.0199811 -0.203638 0)
(-0.00805674 0.0880815 0)
(-0.0303058 0.176886 0)
(-0.0430708 0.218397 0)
(-0.0466091 0.227604 0)
(-0.0400926 0.22168 0)
(-0.0280722 0.206916 0)
(-0.012351 0.187697 0)
(0.00443098 0.165205 0)
(0.0206387 0.139695 0)
(0.0345655 0.110616 0)
(0.0447108 0.0770563 0)
(0.0495994 0.0377441 0)
(0.0476232 -0.00894767 0)
(0.0375255 -0.0652607 0)
(0.0176554 -0.133791 0)
(-0.0108843 -0.217566 0)
(-0.0468659 -0.314193 0)
(-0.0747499 -0.408306 0)
(-0.0798139 -0.429812 0)
(-0.0257538 -0.25684 0)
(-0.0146596 0.114301 0)
(-0.045522 0.197332 0)
(-0.0523082 0.22614 0)
(-0.0443527 0.221585 0)
(-0.0221157 0.206619 0)
(0.00567384 0.186629 0)
(0.036708 0.165334 0)
(0.0675549 0.14319 0)
(0.0965235 0.120016 0)
(0.121818 0.0950695 0)
(0.141902 0.0673744 0)
(0.155183 0.035712 0)
(0.15977 -0.00147905 0)
(0.153905 -0.0464135 0)
(0.134714 -0.102207 0)
(0.101604 -0.173865 0)
(0.051155 -0.264969 0)
(-0.00310728 -0.373227 0)
(-0.0519822 -0.438787 0)
(-0.0285352 -0.309702 0)
(-0.0256298 0.141955 0)
(-0.0657444 0.209094 0)
(-0.0483915 0.216425 0)
(-0.0152836 0.19502 0)
(0.0331142 0.171293 0)
(0.0827165 0.147952 0)
(0.132211 0.126694 0)
(0.178248 0.106984 0)
(0.219776 0.08804 0)
(0.255442 0.0689589 0)
(0.284068 0.0487732 0)
(0.304266 0.0264527 0)
(0.314205 0.000713004 0)
(0.311902 -0.0301754 0)
(0.293842 -0.0690311 0)
(0.257953 -0.120865 0)
(0.196459 -0.193083 0)
(0.118322 -0.2963 0)
(0.0175729 -0.395326 0)
(-0.0172126 -0.338866 0)
(-0.0187266 0.214674 0)
(-0.0197693 0.215366 0)
(0.0565632 0.181471 0)
(0.128442 0.14016 0)
(0.205092 0.110243 0)
(0.273052 0.0879988 0)
(0.334439 0.0708047 0)
(0.387867 0.0569363 0)
(0.433696 0.0449596 0)
(0.471666 0.0339019 0)
(0.501378 0.0229362 0)
(0.522029 0.0113535 0)
(0.532305 -0.00167716 0)
(0.53044 -0.0171375 0)
(0.513265 -0.0370248 0)
(0.477795 -0.064751 0)
(0.414312 -0.108542 0)
(0.323741 -0.186702 0)
(0.173057 -0.29654 0)
(0.0429505 -0.335021 0)
(0.211355 0.129573 0)
(0.29735 0.100962 0)
(0.451252 0.0674619 0)
(0.54331 0.0442866 0)
(0.617979 0.0290451 0)
(0.673758 0.0198092 0)
(0.717578 0.013817 0)
(0.752097 0.00978698 0)
(0.779296 0.00682641 0)
(0.800176 0.00443899 0)
(0.815168 0.00229329 0)
(0.824211 0.000169375 0)
(0.826801 -0.00215471 0)
(0.821929 -0.00486671 0)
(0.807713 -0.00851201 0)
(0.781169 -0.0136868 0)
(0.734265 -0.0229007 0)
(0.65858 -0.0407332 0)
(0.498153 -0.0743741 0)
(0.288345 -0.13622 0)
)
;

boundaryField
{
    movingWall
    {
        type            fixedValue;
        value           uniform (1 0 0);
    }
    fixedWalls
    {
        type            noSlip;
    }
    frontAndBack
    {
        type            empty;
    }
}


// ************************************************************************* //
