/*--------------------------------*- C++ -*----------------------------------*\
| =========                 |                                                 |
| \\      /  F ield         | OpenFOAM: The Open Source CFD Toolbox           |
|  \\    /   O peration     | Version:  4.1                                   |
|   \\  /    A nd           | Web:      www.OpenFOAM.org                      |
|    \\/     M anipulation  |                                                 |
\*---------------------------------------------------------------------------*/
FoamFile
{
    version     2.0;
    format      ascii;
    class       volVectorField;
    location    "0.117";
    object      U;
}
// * * * * * * * * * * * * * * * * * * * * * * * * * * * * * * * * * * * * * //

dimensions      [0 1 -1 0 0 0 0];

internalField   nonuniform List<vector> 
1600
(
(1.45205e-05 -1.60786e-05 0)
(1.24731e-05 3.46615e-05 0)
(-8.53776e-05 0.000127167 0)
(-0.000300958 0.000234173 0)
(-0.000637595 0.000339531 0)
(-0.00108613 0.00043402 0)
(-0.00163042 0.000512476 0)
(-0.00225053 0.000572278 0)
(-0.00292485 0.000612417 0)
(-0.00363145 0.000632923 0)
(-0.00434892 0.000634499 0)
(-0.00505695 0.000618282 0)
(-0.00573674 0.000585689 0)
(-0.00637115 0.000538312 0)
(-0.0069449 0.000477864 0)
(-0.00744469 0.00040613 0)
(-0.00785918 0.000324959 0)
(-0.00817912 0.000236249 0)
(-0.00839736 0.000141949 0)
(-0.00850892 4.40643e-05 0)
(-0.00851101 -5.53418e-05 0)
(-0.00840313 -0.000154146 0)
(-0.00818708 -0.000250166 0)
(-0.00786707 -0.000341173 0)
(-0.00744971 -0.000424906 0)
(-0.00694407 -0.000499099 0)
(-0.00636167 -0.00056152 0)
(-0.00571641 -0.000610018 0)
(-0.00502448 -0.000642587 0)
(-0.0043042 -0.000657445 0)
(-0.00357571 -0.00065313 0)
(-0.00286065 -0.000628629 0)
(-0.00218156 -0.000583546 0)
(-0.0015612 -0.000518329 0)
(-0.00102149 -0.000434617 0)
(-0.000582018 -0.000335754 0)
(-0.000257909 -0.000227638 0)
(-5.66205e-05 -0.000120092 0)
(2.73505e-05 -2.94506e-05 0)
(1.80773e-05 1.82114e-05 0)
(-3.86291e-05 -1.66372e-05 0)
(-0.000222935 0.000212329 0)
(-0.000650331 0.000596869 0)
(-0.00136765 0.00103453 0)
(-0.00238268 0.00146387 0)
(-0.00367429 0.00184857 0)
(-0.00520384 0.00216785 0)
(-0.00692239 0.00241087 0)
(-0.00877569 0.00257328 0)
(-0.0107077 0.00265497 0)
(-0.0126631 0.00265863 0)
(-0.0145887 0.00258881 0)
(-0.0164347 0.00245125 0)
(-0.0181558 0.00225247 0)
(-0.019711 0.00199952 0)
(-0.0210646 0.00169979 0)
(-0.0221863 0.00136095 0)
(-0.0230512 0.000990892 0)
(-0.0236401 0.000597714 0)
(-0.0239398 0.00018975 0)
(-0.023943 -0.000224437 0)
(-0.0236485 -0.000636043 0)
(-0.0230615 -0.00103604 0)
(-0.0221935 -0.00141523 0)
(-0.0210625 -0.00176427 0)
(-0.0196929 -0.00207385 0)
(-0.0181157 -0.00233478 0)
(-0.016368 -0.00253826 0)
(-0.0144928 -0.00267606 0)
(-0.0125383 -0.00274092 0)
(-0.0105572 -0.00272689 0)
(-0.00860591 -0.00262992 0)
(-0.00674233 -0.00244847 0)
(-0.00502438 -0.00218448 0)
(-0.00350698 -0.00184475 0)
(-0.00223838 -0.00144288 0)
(-0.00125489 -0.00100252 0)
(-0.000573804 -0.000562397 0)
(-0.000182378 -0.000185126 0)
(-2.85825e-05 2.82933e-05 0)
(-0.000134184 7.78923e-05 0)
(-0.000618086 0.000632737 0)
(-0.00147125 0.00143349 0)
(-0.00274523 0.00231487 0)
(-0.00444608 0.00317083 0)
(-0.00654245 0.00393519 0)
(-0.00897892 0.00456842 0)
(-0.0116849 0.00504901 0)
(-0.0145815 0.00536769 0)
(-0.0175865 0.00552353 0)
(-0.0206177 0.00552133 0)
(-0.0235958 0.00536971 0)
(-0.0264463 0.00507992 0)
(-0.0291005 0.00466497 0)
(-0.0314965 0.00413908 0)
(-0.0335803 0.0035173 0)
(-0.0353056 0.0028153 0)
(-0.0366348 0.00204929 0)
(-0.0375388 0.00123596 0)
(-0.0379975 0.000392449 0)
(-0.0380001 -0.000463598 0)
(-0.037545 -0.00131408 0)
(-0.0366403 -0.00214048 0)
(-0.0353038 -0.00292394 0)
(-0.033563 -0.00364543 0)
(-0.0314552 -0.00428596 0)
(-0.0290273 -0.00482694 0)
(-0.0263353 -0.00525057 0)
(-0.0234441 -0.00554039 0)
(-0.0204258 -0.00568194 0)
(-0.0173594 -0.00566358 0)
(-0.0143282 -0.00547757 0)
(-0.011418 -0.00512135 0)
(-0.00871358 -0.00459939 0)
(-0.0062949 -0.0039256 0)
(-0.00423168 -0.00312688 0)
(-0.00257633 -0.0022483 0)
(-0.00135517 -0.00136088 0)
(-0.000555409 -0.000573734 0)
(-0.000118092 -5.18025e-05 0)
(-0.000248308 0.000291415 0)
(-0.00108355 0.00134996 0)
(-0.00241007 0.00270145 0)
(-0.00427053 0.00413582 0)
(-0.0066612 0.00550964 0)
(-0.00953783 0.00672878 0)
(-0.0128292 0.00773463 0)
(-0.0164464 0.00849404 0)
(-0.0202905 0.00899199 0)
(-0.0242582 0.00922631 0)
(-0.0282458 0.00920393 0)
(-0.0321532 0.00893813 0)
(-0.0358855 0.00844664 0)
(-0.0393554 0.00775027 0)
(-0.0424841 0.006872 0)
(-0.0452024 0.00583632 0)
(-0.0474512 0.00466893 0)
(-0.0491823 0.00339644 0)
(-0.0503586 0.00204634 0)
(-0.0509547 0.000646877 0)
(-0.0509567 -0.000772875 0)
(-0.0503628 -0.00218313 0)
(-0.0491837 -0.00355345 0)
(-0.0474421 -0.0048529 0)
(-0.0451735 -0.00605035 0)
(-0.0424256 -0.00711485 0)
(-0.0392581 -0.00801616 0)
(-0.0357426 -0.00872548 0)
(-0.0319611 -0.00921629 0)
(-0.0280055 -0.0094655 0)
(-0.0239753 -0.00945475 0)
(-0.0199758 -0.00917208 0)
(-0.0161147 -0.00861399 0)
(-0.0124987 -0.00778811 0)
(-0.0092283 -0.00671669 0)
(-0.00639151 -0.0054413 0)
(-0.00405636 -0.00402933 0)
(-0.00226134 -0.00258294 0)
(-0.00100217 -0.00125142 0)
(-0.000226967 -0.00024678 0)
(-0.000368255 0.000633114 0)
(-0.00157178 0.00238894 0)
(-0.00338895 0.00443468 0)
(-0.00584662 0.00653159 0)
(-0.00892509 0.00850813 0)
(-0.0125636 0.0102469 0)
(-0.0166739 0.0116723 0)
(-0.0211498 0.0127402 0)
(-0.0258744 0.0134301 0)
(-0.0307262 0.0137387 0)
(-0.035584 0.0136756 0)
(-0.0403301 0.0132592 0)
(-0.0448535 0.0125148 0)
(-0.0490514 0.011472 0)
(-0.0528312 0.0101641 0)
(-0.0561117 0.00862643 0)
(-0.0588233 0.00689653 0)
(-0.0609096 0.00501323 0)
(-0.0623267 0.00301671 0)
(-0.0630449 0.000948337 0)
(-0.063048 -0.00114938 0)
(-0.0623339 -0.00323287 0)
(-0.0609153 -0.0052577 0)
(-0.0588189 -0.00717878 0)
(-0.0560864 -0.00895077 0)
(-0.0527738 -0.0105287 0)
(-0.0489512 -0.0118689 0)
(-0.0447024 -0.0129296 0)
(-0.0401235 -0.0136727 0)
(-0.035322 -0.0140651 0)
(-0.0304145 -0.0140807 0)
(-0.0255242 -0.0137027 0)
(-0.0207775 -0.0129263 0)
(-0.0162998 -0.0117622 0)
(-0.0122099 -0.0102412 0)
(-0.00861403 -0.00841912 0)
(-0.0055971 -0.00638425 0)
(-0.00321377 -0.00426593 0)
(-0.00147474 -0.00224535 0)
(-0.00034238 -0.000566674 0)
(-0.000487891 0.00110351 0)
(-0.00205917 0.00375528 0)
(-0.00436735 0.00664397 0)
(-0.00742077 0.00951421 0)
(-0.01118 0.0121752 0)
(-0.0155648 0.0144919 0)
(-0.0204682 0.0163754 0)
(-0.025766 0.0177725 0)
(-0.0313241 0.0186587 0)
(-0.0370049 0.0190304 0)
(-0.0426712 0.0189006 0)
(-0.0481908 0.018294 0)
(-0.0534389 0.0172441 0)
(-0.0583002 0.0157908 0)
(-0.062671 0.0139785 0)
(-0.0664602 0.0118553 0)
(-0.0695901 0.00947168 0)
(-0.0719971 0.00688026 0)
(-0.0736327 0.00413552 0)
(-0.0744632 0.00129357 0)
(-0.0744705 -0.00158795 0)
(-0.0736524 -0.00445002 0)
(-0.0720227 -0.00723246 0)
(-0.0696114 -0.00987425 0)
(-0.0664648 -0.0123142 0)
(-0.0626453 -0.0144915 0)
(-0.0582312 -0.0163471 0)
(-0.0533159 -0.0178251 0)
(-0.0480071 -0.0188741 0)
(-0.0424249 -0.0194497 0)
(-0.0367004 -0.0195168 0)
(-0.0309721 -0.0190526 0)
(-0.0253829 -0.0180503 0)
(-0.0200758 -0.0165229 0)
(-0.0151876 -0.0145084 0)
(-0.0108432 -0.0120755 0)
(-0.00714664 -0.00933033 0)
(-0.00417223 -0.00642464 0)
(-0.00194958 -0.00356371 0)
(-0.000458173 -0.00101291 0)
(-0.000604627 0.00169943 0)
(-0.00253557 0.00544545 0)
(-0.00532701 0.00932814 0)
(-0.0089684 0.0130839 0)
(-0.0133988 0.0165099 0)
(-0.0185162 0.0194595 0)
(-0.0241931 0.0218342 0)
(-0.0302867 0.0235752 0)
(-0.0366456 0.0246557 0)
(-0.0431162 0.0250738 0)
(-0.0495474 0.0248472 0)
(-0.0557937 0.0240079 0)
(-0.0617185 0.022599 0)
(-0.0671963 0.0206718 0)
(-0.0721142 0.0182832 0)
(-0.0763731 0.0154948 0)
(-0.0798887 0.0123716 0)
(-0.0825923 0.00898131 0)
(-0.0844309 0.00539382 0)
(-0.0853682 0.00168131 0)
(-0.0853843 -0.00208216 0)
(-0.0844767 -0.00582077 0)
(-0.0826599 -0.0094572 0)
(-0.0799659 -0.0129131 0)
(-0.0764445 -0.0161099 0)
(-0.0721628 -0.0189697 0)
(-0.0672053 -0.0214166 0)
(-0.0616731 -0.0233786 0)
(-0.0556831 -0.0247897 0)
(-0.0493662 -0.0255926 0)
(-0.0428659 -0.0257418 0)
(-0.0363346 -0.0252073 0)
(-0.0299308 -0.0239784 0)
(-0.0238144 -0.022069 0)
(-0.018141 -0.0195222 0)
(-0.0130553 -0.016417 0)
(-0.0086828 -0.0128742 0)
(-0.00511982 -0.00906277 0)
(-0.00241711 -0.00520599 0)
(-0.000571879 -0.00158336 0)
(-0.000717825 0.00241654 0)
(-0.00299834 0.0074522 0)
(-0.00626272 0.0124805 0)
(-0.0104822 0.0172348 0)
(-0.0155736 0.0215064 0)
(-0.0214116 0.025142 0)
(-0.0278473 0.028038 0)
(-0.0347177 0.0301334 0)
(-0.0418539 0.031402 0)
(-0.0490868 0.0318457 0)
(-0.0562515 0.0314886 0)
(-0.0631906 0.0303721 0)
(-0.0697573 0.02855 0)
(-0.0758172 0.0260861 0)
(-0.0812499 0.0230513 0)
(-0.08595 0.0195219 0)
(-0.089828 0.0155782 0)
(-0.092811 0.0113039 0)
(-0.094843 0.00678558 0)
(-0.095885 0.00211225 0)
(-0.0959159 -0.00262459 0)
(-0.0949324 -0.00733133 0)
(-0.0929492 -0.0119125 0)
(-0.0899996 -0.0162714 0)
(-0.0861354 -0.0203108 0)
(-0.0814271 -0.0239342 0)
(-0.0759636 -0.0270476 0)
(-0.0698521 -0.0295616 0)
(-0.0632168 -0.0313939 0)
(-0.056198 -0.0324725 0)
(-0.04895 -0.0327398 0)
(-0.0416385 -0.0321562 0)
(-0.0344371 -0.0307054 0)
(-0.0275229 -0.0283996 0)
(-0.021071 -0.0252849 0)
(-0.0152478 -0.0214471 0)
(-0.010202 -0.0170178 0)
(-0.00605359 -0.0121795 0)
(-0.00287579 -0.00716871 0)
(-0.000683117 -0.00227497 0)
(-0.000827877 0.00325071 0)
(-0.00344886 0.00976786 0)
(-0.00717658 0.0160928 0)
(-0.0119649 0.0219595 0)
(-0.0177081 0.0271574 0)
(-0.0242572 0.0315313 0)
(-0.0314401 0.0349768 0)
(-0.0390733 0.0374343 0)
(-0.0469696 0.0388814 0)
(-0.0549443 0.0393267 0)
(-0.0628191 0.0388032 0)
(-0.0704257 0.037363 0)
(-0.0776079 0.0350728 0)
(-0.0842238 0.0320104 0)
(-0.0901468 0.0282615 0)
(-0.0952666 0.0239183 0)
(-0.0994898 0.0190773 0)
(-0.10274 0.0138391 0)
(-0.10496 0.00830741 0)
(-0.106107 0.00258894 0)
(-0.10616 -0.00320683 0)
(-0.105114 -0.00896786 0)
(-0.102983 -0.0145798 0)
(-0.0998021 -0.0199267 0)
(-0.0956229 -0.0248918 0)
(-0.090518 -0.029359 0)
(-0.0845795 -0.0332148 0)
(-0.0779188 -0.0363507 0)
(-0.0706661 -0.0386663 0)
(-0.0629697 -0.0400731 0)
(-0.0549939 -0.0404989 0)
(-0.046917 -0.0398925 0)
(-0.0389276 -0.0382291 0)
(-0.0312208 -0.0355163 0)
(-0.0239923 -0.0317998 0)
(-0.0174313 -0.0271691 0)
(-0.0117116 -0.0217632 0)
(-0.00697863 -0.0157741 0)
(-0.0033285 -0.00944886 0)
(-0.000792641 -0.00308528 0)
(-0.000935682 0.00419874 0)
(-0.00389056 0.0123861 0)
(-0.00807449 0.020158 0)
(-0.0134246 0.0272509 0)
(-0.0198128 0.0334558 0)
(-0.0270653 0.0386196 0)
(-0.0349867 0.0426413 0)
(-0.0433717 0.0454664 0)
(-0.0520145 0.0470801 0)
(-0.0607146 0.0475005 0)
(-0.0692807 0.0467722 0)
(-0.0775339 0.0449606 0)
(-0.0853098 0.042147 0)
(-0.0924601 0.0384247 0)
(-0.0988533 0.0338956 0)
(-0.104375 0.0286687 0)
(-0.10893 0.0228576 0)
(-0.112439 0.0165803 0)
(-0.114842 0.00995799 0)
(-0.116096 0.00311549 0)
(-0.116179 -0.00381946 0)
(-0.115084 -0.010716 0)
(-0.112825 -0.0174406 0)
(-0.109436 -0.0238574 0)
(-0.104968 -0.0298295 0)
(-0.0994941 -0.03522 0)
(-0.0931085 -0.0398948 0)
(-0.0859252 -0.0437246 0)
(-0.0780792 -0.0465891 0)
(-0.0697253 -0.048381 0)
(-0.0610371 -0.0490108 0)
(-0.052205 -0.0484126 0)
(-0.0434329 -0.0465501 0)
(-0.0349342 -0.0434228 0)
(-0.0269264 -0.0390723 0)
(-0.0196234 -0.0335885 0)
(-0.0132253 -0.0271142 0)
(-0.00790437 -0.0198482 0)
(-0.00378047 -0.0120459 0)
(-0.000901796 -0.00401318 0)
(-0.00104235 0.00525861 0)
(-0.00432772 0.0153027 0)
(-0.00896406 0.024671 0)
(-0.014872 0.0331037 0)
(-0.0219007 0.0403961 0)
(-0.0298515 0.0464006 0)
(-0.0385043 0.0510235 0)
(-0.0476317 0.0542195 0)
(-0.057009 0.0559852 0)
(-0.0664195 0.0563518 0)
(-0.0756593 0.0553784 0)
(-0.0845397 0.0531463 0)
(-0.0928889 0.0497536 0)
(-0.100553 0.0453106 0)
(-0.107397 0.0399372 0)
(-0.113305 0.0337596 0)
(-0.118178 0.0269094 0)
(-0.121937 0.0195223 0)
(-0.124521 0.0117373 0)
(-0.125886 0.00369728 0)
(-0.126007 -0.00445181 0)
(-0.124878 -0.0125603 0)
(-0.122511 -0.0204753 0)
(-0.118936 -0.0280409 0)
(-0.114206 -0.0350993 0)
(-0.108392 -0.0414924 0)
(-0.101587 -0.0470638 0)
(-0.0939081 -0.0516622 0)
(-0.0854924 -0.055145 0)
(-0.0765005 -0.0573834 0)
(-0.0671144 -0.0582677 0)
(-0.0575358 -0.0577141 0)
(-0.0479841 -0.0556707 0)
(-0.0386917 -0.052125 0)
(-0.0298988 -0.0471109 0)
(-0.0218454 -0.0407143 0)
(-0.0147596 -0.0330788 0)
(-0.00884229 -0.0244074 0)
(-0.00423799 -0.0149627 0)
(-0.00101219 -0.00505928 0)
(-0.00114907 0.0064296 0)
(-0.0047649 0.0185161 0)
(-0.0098534 0.0296298 0)
(-0.0163184 0.0395153 0)
(-0.023986 0.0479745 0)
(-0.0326315 0.0548687 0)
(-0.0420096 0.0601156 0)
(-0.0518704 0.0636832 0)
(-0.0619695 0.0655835 0)
(-0.0720745 0.0658645 0)
(-0.0819691 0.0646035 0)
(-0.0914555 0.0619004 0)
(-0.100356 0.0578724 0)
(-0.108512 0.0526489 0)
(-0.115786 0.0463687 0)
(-0.122061 0.0391767 0)
(-0.127239 0.0312227 0)
(-0.131239 0.0226602 0)
(-0.133999 0.013646 0)
(-0.135478 0.00434068 0)
(-0.135647 -0.00509181 0)
(-0.134499 -0.0144834 0)
(-0.132044 -0.0236621 0)
(-0.12831 -0.032452 0)
(-0.123347 -0.0406742 0)
(-0.117223 -0.0481485 0)
(-0.110032 -0.0546954 0)
(-0.101887 -0.0601395 0)
(-0.0929282 -0.0643139 0)
(-0.0833206 -0.0670654 0)
(-0.0732529 -0.0682609 0)
(-0.0629379 -0.0677941 0)
(-0.0526099 -0.0655936 0)
(-0.0425209 -0.0616306 0)
(-0.0329349 -0.0559262 0)
(-0.0241192 -0.0485589 0)
(-0.0163322 -0.039669 0)
(-0.00980459 -0.0294618 0)
(-0.00470773 -0.018206 0)
(-0.00112554 -0.00622603 0)
(-0.00125697 0.00771223 0)
(-0.00520654 0.0220272 0)
(-0.0107505 0.0350351 0)
(-0.0177752 0.0464853 0)
(-0.0260821 0.0561888 0)
(-0.0354199 0.0640192 0)
(-0.0455174 0.0699095 0)
(-0.0561011 0.0738458 0)
(-0.066907 0.0758596 0)
(-0.0776872 0.0760201 0)
(-0.0882136 0.0744262 0)
(-0.0982803 0.0711999 0)
(-0.107704 0.0664799 0)
(-0.116325 0.060417 0)
(-0.124004 0.0531701 0)
(-0.130624 0.0449035 0)
(-0.136088 0.0357856 0)
(-0.140317 0.0259878 0)
(-0.143249 0.0156843 0)
(-0.144843 0.00505262 0)
(-0.145069 -0.0057259 0)
(-0.143919 -0.0164656 0)
(-0.1414 -0.0269759 0)
(-0.137537 -0.0370613 0)
(-0.132374 -0.0465221 0)
(-0.125977 -0.0551552 0)
(-0.118435 -0.0627571 0)
(-0.109861 -0.0691268 0)
(-0.100392 -0.0740705 0)
(-0.090197 -0.0774076 0)
(-0.0794693 -0.0789773 0)
(-0.068432 -0.0786469 0)
(-0.0573338 -0.0763204 0)
(-0.0464464 -0.0719472 0)
(-0.0360584 -0.0655311 0)
(-0.0264662 -0.0571379 0)
(-0.01796 -0.0469014 0)
(-0.0108033 -0.0350262 0)
(-0.0051963 -0.0217864 0)
(-0.00124353 -0.00751772 0)
(-0.00136718 0.00910822 0)
(-0.00565693 0.0258394 0)
(-0.0116631 0.0408901 0)
(-0.0192526 0.0540156 0)
(-0.0282013 0.065038 0)
(-0.0382295 0.0738471 0)
(-0.0490389 0.0803958 0)
(-0.0603321 0.0846927 0)
(-0.0718256 0.0867941 0)
(-0.0832559 0.0867947 0)
(-0.0943844 0.0848195 0)
(-0.104998 0.0810158 0)
(-0.114911 0.0755468 0)
(-0.123962 0.0685866 0)
(-0.132012 0.0603157 0)
(-0.138948 0.0509187 0)
(-0.144675 0.0405826 0)
(-0.149115 0.0294965 0)
(-0.152211 0.0178512 0)
(-0.153919 0.00584024 0)
(-0.154211 -0.00633887 0)
(-0.153077 -0.0184839 0)
(-0.15052 -0.030387 0)
(-0.14656 -0.0418338 0)
(-0.141238 -0.0526038 0)
(-0.134612 -0.0624714 0)
(-0.126765 -0.0712081 0)
(-0.117806 -0.0785856 0)
(-0.107871 -0.0843808 0)
(-0.0971251 -0.0883822 0)
(-0.0857675 -0.0903973 0)
(-0.0740289 -0.0902616 0)
(-0.0621719 -0.087849 0)
(-0.0504875 -0.0830812 0)
(-0.0392897 -0.0759387 0)
(-0.0289055 -0.0664694 0)
(-0.0196593 -0.054796 0)
(-0.01185 -0.0411195 0)
(-0.00571009 -0.0257184 0)
(-0.00136781 -0.00894044 0)
(-0.00148077 0.0106204 0)
(-0.00612018 0.0299583 0)
(-0.0125982 0.0472008 0)
(-0.0207604 0.0621099 0)
(-0.0303543 0.0745219 0)
(-0.0410703 0.0843467 0)
(-0.0525815 0.0915621 0)
(-0.0645663 0.0962049 0)
(-0.0767212 0.0983616 0)
(-0.0887684 0.0981576 0)
(-0.10046 0.0957483 0)
(-0.111577 0.0913105 0)
(-0.121933 0.085035 0)
(-0.131368 0.077121 0)
(-0.139747 0.0677724 0)
(-0.14696 0.0571945 0)
(-0.152917 0.045593 0)
(-0.157545 0.0331739 0)
(-0.16079 0.0201436 0)
(-0.162609 0.00671034 0)
(-0.162975 -0.00691388 0)
(-0.161876 -0.020512 0)
(-0.15931 -0.0338603 0)
(-0.155293 -0.0467267 0)
(-0.149858 -0.0588712 0)
(-0.143056 -0.0700458 0)
(-0.134962 -0.0799962 0)
(-0.125675 -0.0884655 0)
(-0.115327 -0.095199 0)
(-0.104081 -0.0999504 0)
(-0.0921351 -0.102491 0)
(-0.0797269 -0.102619 0)
(-0.0671308 -0.100171 0)
(-0.0546569 -0.0950351 0)
(-0.0426447 -0.0871611 0)
(-0.0314533 -0.0765727 0)
(-0.0214442 -0.063376 0)
(-0.0129552 -0.0477647 0)
(-0.00625513 -0.0300199 0)
(-0.00149995 -0.0105019 0)
(-0.00159882 0.0122527 0)
(-0.00660036 0.0343918 0)
(-0.013563 0.0539752 0)
(-0.0223075 0.0707731 0)
(-0.0325504 0.0846396 0)
(-0.0439496 0.0955096 0)
(-0.0561484 0.103392 0)
(-0.0687998 0.108357 0)
(-0.0815809 0.110528 0)
(-0.0942007 0.110068 0)
(-0.106403 0.107167 0)
(-0.117967 0.102035 0)
(-0.128707 0.0948951 0)
(-0.138466 0.0859729 0)
(-0.147117 0.0754971 0)
(-0.154556 0.0636943 0)
(-0.1607 0.0507888 0)
(-0.165484 0.0370022 0)
(-0.168856 0.0225551 0)
(-0.170778 0.00766879 0)
(-0.171224 -0.00743263 0)
(-0.170179 -0.0225194 0)
(-0.167638 -0.0373539 0)
(-0.163609 -0.0516887 0)
(-0.158117 -0.0652653 0)
(-0.151203 -0.0778138 0)
(-0.142931 -0.0890546 0)
(-0.133389 -0.0987009 0)
(-0.122699 -0.106463 0)
(-0.111018 -0.112058 0)
(-0.098541 -0.115214 0)
(-0.0855088 -0.115687 0)
(-0.0722055 -0.113269 0)
(-0.0589585 -0.107805 0)
(-0.0461333 -0.0992071 0)
(-0.0341225 -0.0874665 0)
(-0.0233272 -0.0726662 0)
(-0.0141287 -0.0549877 0)
(-0.0068371 -0.0347118 0)
(-0.00164145 -0.0122116 0)
(-0.00172245 0.01401 0)
(-0.00710164 0.0391495 0)
(-0.0145643 0.0612229 0)
(-0.0239024 0.0800108 0)
(-0.0347975 0.0953891 0)
(-0.0468721 0.107324 0)
(-0.0597377 0.115861 0)
(-0.0730216 0.121115 0)
(-0.0863818 0.12325 0)
(-0.0995154 0.122473 0)
(-0.112161 0.119016 0)
(-0.124098 0.113127 0)
(-0.135144 0.105063 0)
(-0.145151 0.0950809 0)
(-0.154001 0.0834339 0)
(-0.1616 0.0703705 0)
(-0.167875 0.0561326 0)
(-0.17277 0.0409566 0)
(-0.17624 0.0250752 0)
(-0.178251 0.00871982 0)
(-0.17878 -0.00787553 0)
(-0.177808 -0.0244714 0)
(-0.175328 -0.0408191 0)
(-0.17134 -0.0566581 0)
(-0.165857 -0.0717137 0)
(-0.158908 -0.0856958 0)
(-0.150542 -0.0982993 0)
(-0.140835 -0.109207 0)
(-0.129894 -0.118093 0)
(-0.117863 -0.124632 0)
(-0.104932 -0.128506 0)
(-0.0913397 -0.129419 0)
(-0.0773769 -0.127112 0)
(-0.0633863 -0.121378 0)
(-0.0497587 -0.112079 0)
(-0.0369213 -0.099167 0)
(-0.0253184 -0.082692 0)
(-0.0153791 -0.0628167 0)
(-0.00746135 -0.0398179 0)
(-0.00179375 -0.0140802 0)
(-0.00185289 0.0158986 0)
(-0.00762858 0.0442435 0)
(-0.0156096 0.0689554 0)
(-0.0255536 0.0898285 0)
(-0.0371026 0.106766 0)
(-0.0498398 0.119772 0)
(-0.0633429 0.12894 0)
(-0.0772128 0.134432 0)
(-0.0910895 0.136468 0)
(-0.10466 0.135303 0)
(-0.117661 0.131219 0)
(-0.129876 0.124506 0)
(-0.14113 0.115459 0)
(-0.151288 0.104367 0)
(-0.160244 0.0915118 0)
(-0.167919 0.0771619 0)
(-0.174254 0.0615762 0)
(-0.179202 0.045004 0)
(-0.18273 0.0276872 0)
(-0.184809 0.00986513 0)
(-0.185419 -0.00822219 0)
(-0.184541 -0.0263289 0)
(-0.182161 -0.0441989 0)
(-0.178271 -0.0615619 0)
(-0.172874 -0.0781296 0)
(-0.165982 -0.0935939 0)
(-0.157626 -0.107626 0)
(-0.147864 -0.119877 0)
(-0.136783 -0.129984 0)
(-0.124512 -0.137576 0)
(-0.111228 -0.142282 0)
(-0.0971631 -0.143748 0)
(-0.0826093 -0.141652 0)
(-0.0679221 -0.135726 0)
(-0.0535158 -0.125771 0)
(-0.0398533 -0.111685 0)
(-0.0274251 -0.093477 0)
(-0.0167141 -0.071281 0)
(-0.00813291 -0.0453641 0)
(-0.00195827 -0.0161201 0)
(-0.00199157 0.0179258 0)
(-0.00818639 0.0496875 0)
(-0.0167069 0.0771855 0)
(-0.02727 0.100231 0)
(-0.0394716 0.118761 0)
(-0.0528517 0.132829 0)
(-0.0669517 0.142583 0)
(-0.0813456 0.148249 0)
(-0.095657 0.150106 0)
(-0.109566 0.14847 0)
(-0.122811 0.143678 0)
(-0.135184 0.136069 0)
(-0.146523 0.12598 0)
(-0.15671 0.113735 0)
(-0.165657 0.0996417 0)
(-0.173304 0.0839915 0)
(-0.179607 0.067058 0)
(-0.184536 0.0491006 0)
(-0.188069 0.0303679 0)
(-0.190186 0.0111029 0)
(-0.19087 -0.00845204 0)
(-0.190102 -0.0280489 0)
(-0.187865 -0.0474285 0)
(-0.18414 -0.0663148 0)
(-0.178916 -0.0844099 0)
(-0.172188 -0.101391 0)
(-0.163965 -0.116906 0)
(-0.154281 -0.130578 0)
(-0.1432 -0.142004 0)
(-0.130827 -0.150763 0)
(-0.11732 -0.156427 0)
(-0.102897 -0.158577 0)
(-0.0878471 -0.156817 0)
(-0.0725328 -0.150802 0)
(-0.0573895 -0.140262 0)
(-0.042916 -0.125024 0)
(-0.0296518 -0.105041 0)
(-0.0181398 -0.0804098 0)
(-0.0088565 -0.051378 0)
(-0.00213635 -0.0183449 0)
(-0.00214018 0.0201007 0)
(-0.00878122 0.0554982 0)
(-0.0178657 0.085927 0)
(-0.0290611 0.111221 0)
(-0.04191 0.131361 0)
(-0.0559038 0.14646 0)
(-0.0705452 0.156735 0)
(-0.0853814 0.162486 0)
(-0.100022 0.164066 0)
(-0.114144 0.161861 0)
(-0.127493 0.156271 0)
(-0.139874 0.147689 0)
(-0.151146 0.1365 0)
(-0.161213 0.123062 0)
(-0.17001 0.107714 0)
(-0.177499 0.0907643 0)
(-0.18366 0.0725011 0)
(-0.188479 0.0531908 0)
(-0.19195 0.0330851 0)
(-0.194064 0.0124264 0)
(-0.194809 -0.00854525 0)
(-0.194167 -0.0295848 0)
(-0.192116 -0.0504349 0)
(-0.188629 -0.0708189 0)
(-0.183677 -0.0904341 0)
(-0.177236 -0.108946 0)
(-0.16929 -0.125986 0)
(-0.159843 -0.141147 0)
(-0.14893 -0.153987 0)
(-0.136626 -0.164034 0)
(-0.12306 -0.170797 0)
(-0.108429 -0.173781 0)
(-0.0930105 -0.172506 0)
(-0.0771676 -0.166538 0)
(-0.0613529 -0.155512 0)
(-0.0460994 -0.139173 0)
(-0.0319991 -0.117399 0)
(-0.0196612 -0.0902308 0)
(-0.00963657 -0.0578884 0)
(-0.00232936 -0.0207696 0)
(-0.00230081 0.0224341 0)
(-0.00942058 0.0616946 0)
(-0.0190972 0.0951952 0)
(-0.0309377 0.122799 0)
(-0.0444224 0.144545 0)
(-0.0589881 0.160617 0)
(-0.0740962 0.17132 0)
(-0.0892682 0.177042 0)
(-0.104103 0.178225 0)
(-0.11828 0.175336 0)
(-0.131558 0.168846 0)
(-0.143765 0.159212 0)
(-0.154785 0.146865 0)
(-0.16455 0.132205 0)
(-0.173027 0.115595 0)
(-0.180205 0.0973645 0)
(-0.186089 0.0778112 0)
(-0.190689 0.0572054 0)
(-0.194016 0.035797 0)
(-0.196073 0.0138231 0)
(-0.196858 -0.00848387 0)
(-0.196354 -0.0308874 0)
(-0.194534 -0.0531379 0)
(-0.191362 -0.0749642 0)
(-0.186793 -0.0960643 0)
(-0.180777 -0.116099 0)
(-0.173273 -0.134684 0)
(-0.164251 -0.151388 0)
(-0.153708 -0.165731 0)
(-0.141679 -0.17719 0)
(-0.128258 -0.185203 0)
(-0.11361 -0.189193 0)
(-0.0979902 -0.188583 0)
(-0.0817537 -0.182829 0)
(-0.0653635 -0.171459 0)
(-0.0493846 -0.154106 0)
(-0.034463 -0.130553 0)
(-0.0212815 -0.100768 0)
(-0.0104772 -0.0649245 0)
(-0.00253863 -0.0234103 0)
(-0.00247603 0.0249393 0)
(-0.0101137 0.0682992 0)
(-0.0204145 0.105006 0)
(-0.0329117 0.134963 0)
(-0.0470119 0.158278 0)
(-0.0620908 0.175233 0)
(-0.0775664 0.186237 0)
(-0.0929367 0.191786 0)
(-0.107795 0.192426 0)
(-0.121831 0.188719 0)
(-0.134825 0.181218 0)
(-0.146635 0.170446 0)
(-0.157179 0.156889 0)
(-0.166428 0.140985 0)
(-0.174383 0.123125 0)
(-0.181068 0.103654 0)
(-0.186518 0.0828754 0)
(-0.190768 0.0610596 0)
(-0.193851 0.03845 0)
(-0.195787 0.0152727 0)
(-0.196581 -0.00825327 0)
(-0.19622 -0.0319063 0)
(-0.194677 -0.0554514 0)
(-0.191902 -0.0786291 0)
(-0.187834 -0.101146 0)
(-0.1824 -0.122663 0)
(-0.175526 -0.142788 0)
(-0.167143 -0.161071 0)
(-0.157205 -0.176996 0)
(-0.145699 -0.189987 0)
(-0.132673 -0.199411 0)
(-0.118247 -0.204599 0)
(-0.102641 -0.204864 0)
(-0.0861903 -0.199535 0)
(-0.0693597 -0.188005 0)
(-0.0527405 -0.169772 0)
(-0.0370332 -0.144495 0)
(-0.0230016 -0.11204 0)
(-0.011382 -0.072515 0)
(-0.00276543 -0.0262847 0)
(-0.00266901 0.0276325 0)
(-0.0108717 0.0753386 0)
(-0.0218332 0.115375 0)
(-0.0349956 0.1477 0)
(-0.0496785 0.172516 0)
(-0.0651893 0.190222 0)
(-0.0809017 0.201357 0)
(-0.0962938 0.206552 0)
(-0.110961 0.206474 0)
(-0.124614 0.201795 0)
(-0.137065 0.19316 0)
(-0.148211 0.181166 0)
(-0.158018 0.166353 0)
(-0.166498 0.149198 0)
(-0.173697 0.130119 0)
(-0.179678 0.109471 0)
(-0.184511 0.0875606 0)
(-0.188261 0.0646527 0)
(-0.190985 0.0409781 0)
(-0.192719 0.0167462 0)
(-0.193482 -0.0078439 0)
(-0.193266 -0.0325922 0)
(-0.192039 -0.0572852 0)
(-0.189746 -0.0816832 0)
(-0.186307 -0.105508 0)
(-0.181623 -0.128431 0)
(-0.175587 -0.150059 0)
(-0.168087 -0.169929 0)
(-0.159025 -0.187495 0)
(-0.148335 -0.202131 0)
(-0.136003 -0.213133 0)
(-0.122091 -0.219731 0)
(-0.106771 -0.221114 0)
(-0.0903412 -0.216465 0)
(-0.0732546 -0.205013 0)
(-0.0561202 -0.18609 0)
(-0.0396913 -0.159194 0)
(-0.0248186 -0.124055 0)
(-0.0123537 -0.0806872 0)
(-0.00301092 -0.0294114 0)
(-0.00288358 0.0305338 0)
(-0.0117081 0.0828434 0)
(-0.0233709 0.12632 0)
(-0.0372013 0.160994 0)
(-0.052416 0.187192 0)
(-0.0682469 0.205464 0)
(-0.0840243 0.216514 0)
(-0.0992134 0.221131 0)
(-0.113423 0.220128 0)
(-0.126397 0.214303 0)
(-0.137993 0.204402 0)
(-0.148162 0.191101 0)
(-0.156923 0.174996 0)
(-0.164344 0.156604 0)
(-0.170521 0.136359 0)
(-0.17556 0.114628 0)
(-0.17957 0.0917133 0)
(-0.182651 0.0678669 0)
(-0.184883 0.0433018 0)
(-0.186324 0.0182043 0)
(-0.187005 -0.0072532 0)
(-0.186926 -0.032899 0)
(-0.186055 -0.0585486 0)
(-0.184327 -0.0839901 0)
(-0.181648 -0.10897 0)
(-0.177893 -0.133177 0)
(-0.17292 -0.15623 0)
(-0.166572 -0.177659 0)
(-0.158694 -0.196899 0)
(-0.149156 -0.213278 0)
(-0.137871 -0.226021 0)
(-0.124829 -0.234255 0)
(-0.110132 -0.237031 0)
(-0.0940243 -0.233367 0)
(-0.0769275 -0.222295 0)
(-0.0594549 -0.202939 0)
(-0.0424063 -0.174594 0)
(-0.0267247 -0.13681 0)
(-0.0133934 -0.0894648 0)
(-0.003276 -0.0328104 0)
(-0.00312425 0.0336678 0)
(-0.0126383 0.0908492 0)
(-0.0250463 0.137851 0)
(-0.039537 0.174809 0)
(-0.0552063 0.20221 0)
(-0.0712042 0.220802 0)
(-0.0868215 0.231491 0)
(-0.101522 0.235259 0)
(-0.114944 0.233091 0)
(-0.126881 0.225927 0)
(-0.137253 0.214623 0)
(-0.146078 0.199937 0)
(-0.153444 0.182522 0)
(-0.159478 0.162927 0)
(-0.164334 0.141604 0)
(-0.168169 0.118917 0)
(-0.171132 0.0951608 0)
(-0.173357 0.0705684 0)
(-0.174952 0.045328 0)
(-0.175996 0.0195962 0)
(-0.176535 -0.0064876 0)
(-0.176577 -0.0327871 0)
(-0.176092 -0.0591542 0)
(-0.17501 -0.0854128 0)
(-0.173221 -0.111343 0)
(-0.17058 -0.136664 0)
(-0.166908 -0.161012 0)
(-0.162001 -0.183928 0)
(-0.155647 -0.204835 0)
(-0.147641 -0.223028 0)
(-0.137813 -0.237664 0)
(-0.126063 -0.247766 0)
(-0.112402 -0.252241 0)
(-0.0969969 -0.249915 0)
(-0.080212 -0.239594 0)
(-0.0626445 -0.220146 0)
(-0.0451296 -0.190605 0)
(-0.0287037 -0.150282 0)
(-0.0144996 -0.0988666 0)
(-0.00356099 -0.0365028 0)
(-0.0033961 0.0370649 0)
(-0.0136794 0.0993964 0)
(-0.0268765 0.149978 0)
(-0.0420016 0.18909 0)
(-0.0580095 0.217439 0)
(-0.0739647 0.236025 0)
(-0.0891275 0.246009 0)
(-0.102979 0.248606 0)
(-0.115207 0.245 0)
(-0.125678 0.236288 0)
(-0.134395 0.223445 0)
(-0.141458 0.207313 0)
(-0.147032 0.188594 0)
(-0.15132 0.167864 0)
(-0.154533 0.145582 0)
(-0.156881 0.122107 0)
(-0.158558 0.0977135 0)
(-0.15973 0.0726093 0)
(-0.160534 0.0469511 0)
(-0.161069 0.0208598 0)
(-0.161398 -0.00556457 0)
(-0.161537 -0.0322272 0)
(-0.16146 -0.0590231 0)
(-0.161095 -0.0858202 0)
(-0.160323 -0.112442 0)
(-0.158977 -0.138645 0)
(-0.156848 -0.164103 0)
(-0.153686 -0.188376 0)
(-0.149219 -0.210892 0)
(-0.143165 -0.230927 0)
(-0.135258 -0.247581 0)
(-0.125293 -0.25978 0)
(-0.113167 -0.266279 0)
(-0.0989355 -0.265696 0)
(-0.0828781 -0.256572 0)
(-0.0655449 -0.237467 0)
(-0.0477856 -0.207085 0)
(-0.0307262 -0.164421 0)
(-0.015666 -0.108902 0)
(-0.00386506 -0.0405105 0)
(-0.00370431 0.0407621 0)
(-0.0148477 0.108528 0)
(-0.028872 0.162694 0)
(-0.0445746 0.203746 0)
(-0.060748 0.23269 0)
(-0.0763725 0.250851 0)
(-0.0906963 0.25971 0)
(-0.103244 0.26076 0)
(-0.113784 0.255413 0)
(-0.122282 0.24494 0)
(-0.128846 0.230436 0)
(-0.133677 0.21282 0)
(-0.13703 0.192838 0)
(-0.139184 0.171082 0)
(-0.140416 0.148006 0)
(-0.140988 0.123953 0)
(-0.141134 0.0991698 0)
(-0.141054 0.0738311 0)
(-0.140911 0.0480552 0)
(-0.140823 0.0219215 0)
(-0.140867 -0.00451414 0)
(-0.141071 -0.0312037 0)
(-0.141414 -0.0580912 0)
(-0.141826 -0.0850953 0)
(-0.142182 -0.112091 0)
(-0.142301 -0.138886 0)
(-0.141949 -0.1652 0)
(-0.140837 -0.190631 0)
(-0.138634 -0.214633 0)
(-0.134979 -0.236478 0)
(-0.129508 -0.255231 0)
(-0.121891 -0.269732 0)
(-0.111886 -0.278586 0)
(-0.0994082 -0.280191 0)
(-0.0846075 -0.27279 0)
(-0.0679468 -0.254573 0)
(-0.0502574 -0.22383 0)
(-0.0327407 -0.179139 0)
(-0.0168771 -0.119569 0)
(-0.00418531 -0.0448556 0)
(-0.0040532 0.0448039 0)
(-0.0161552 0.118288 0)
(-0.0310267 0.175969 0)
(-0.0471977 0.218636 0)
(-0.0632787 0.247696 0)
(-0.0781777 0.264903 0)
(-0.0911611 0.272133 0)
(-0.101837 0.27121 0)
(-0.110093 0.263803 0)
(-0.116029 0.251362 0)
(-0.11988 0.235101 0)
(-0.121966 0.216006 0)
(-0.122641 0.194852 0)
(-0.122263 0.172229 0)
(-0.121174 0.148576 0)
(-0.119685 0.124204 0)
(-0.118067 0.0993249 0)
(-0.116547 0.0740716 0)
(-0.115308 0.0485184 0)
(-0.114486 0.0226986 0)
(-0.114171 -0.00337978 0)
(-0.1144 -0.0297191 0)
(-0.115163 -0.0563161 0)
(-0.116393 -0.0831454 0)
(-0.117966 -0.11014 0)
(-0.119697 -0.137171 0)
(-0.121334 -0.164014 0)
(-0.12256 -0.190328 0)
(-0.122993 -0.215608 0)
(-0.122199 -0.239151 0)
(-0.119712 -0.260013 0)
(-0.115068 -0.276971 0)
(-0.107864 -0.288496 0)
(-0.0978355 -0.292762 0)
(-0.0849561 -0.287683 0)
(-0.0695449 -0.271018 0)
(-0.052364 -0.240544 0)
(-0.0346605 -0.194295 0)
(-0.0181025 -0.130841 0)
(-0.00451487 -0.0495596 0)
(-0.00444419 0.0492423 0)
(-0.017601 0.128712 0)
(-0.0333 0.189733 0)
(-0.049744 0.233534 0)
(-0.0653498 0.262078 0)
(-0.0789813 0.277676 0)
(-0.0899741 0.28269 0)
(-0.0980743 0.279331 0)
(-0.10334 0.269544 0)
(-0.106041 0.25496 0)
(-0.106567 0.236899 0)
(-0.105368 0.216391 0)
(-0.102903 0.194217 0)
(-0.0996068 0.170951 0)
(-0.0958798 0.146995 0)
(-0.0920721 0.122617 0)
(-0.0884831 0.0979819 0)
(-0.0853599 0.0731742 0)
(-0.0828991 0.0482197 0)
(-0.0812475 0.0231029 0)
(-0.0805034 -0.00221804 0)
(-0.0807159 -0.0277965 0)
(-0.0818831 -0.0536839 0)
(-0.0839487 -0.0799131 0)
(-0.0867971 -0.106481 0)
(-0.090247 -0.133325 0)
(-0.0940442 -0.160298 0)
(-0.0978556 -0.187128 0)
(-0.101266 -0.213381 0)
(-0.10378 -0.238408 0)
(-0.104836 -0.261289 0)
(-0.103835 -0.280775 0)
(-0.100195 -0.295235 0)
(-0.0934374 -0.302631 0)
(-0.083301 -0.300535 0)
(-0.06989 -0.286213 0)
(-0.0538235 -0.256815 0)
(-0.0363391 -0.209671 0)
(-0.0192843 -0.142663 0)
(-0.00483986 -0.0546413 0)
(-0.00487163 0.054136 0)