/*--------------------------------*- C++ -*----------------------------------*\
| =========                 |                                                 |
| \\      /  F ield         | OpenFOAM: The Open Source CFD Toolbox           |
|  \\    /   O peration     | Version:  4.1                                   |
|   \\  /    A nd           | Web:      www.OpenFOAM.org                      |
|    \\/     M anipulation  |                                                 |
\*---------------------------------------------------------------------------*/
FoamFile
{
    version     2.0;
    format      ascii;
    class       volVectorField;
    location    "0.166";
    object      U;
}
// * * * * * * * * * * * * * * * * * * * * * * * * * * * * * * * * * * * * * //

dimensions      [0 1 -1 0 0 0 0];

internalField   nonuniform List<vector> 
100
(
(-0.00140629 0.000746035 0)
(-0.00420277 0.00108752 0)
(-0.0119275 0.00144349 0)
(-0.0163203 0.000645379 0)
(-0.0210928 0.00039069 0)
(-0.0224632 -0.00100004 0)
(-0.0205511 -0.00166545 0)
(-0.0163606 -0.00317162 0)
(-0.00669099 -0.00306571 0)
(-0.00226747 -0.00241416 0)
(-0.00295221 0.00491527 0)
(-0.0109101 0.00936423 0)
(-0.0260493 0.0109743 0)
(-0.0354698 0.00830201 0)
(-0.0441876 0.00615885 0)
(-0.0466134 0.000167951 0)
(-0.0428479 -0.00408895 0)
(-0.0339933 -0.0109739 0)
(-0.0156872 -0.0109082 0)
(-0.00418069 -0.00652983 0)
(-0.00381799 0.0146085 0)
(-0.0146905 0.0239686 0)
(-0.033774 0.0262394 0)
(-0.0461534 0.0183448 0)
(-0.0577605 0.0118382 0)
(-0.0618509 -0.0028739 0)
(-0.0587054 -0.0140907 0)
(-0.048041 -0.0308964 0)
(-0.0244237 -0.0329937 0)
(-0.00654777 -0.0225271 0)
(-0.00607176 0.0232424 0)
(-0.0204763 0.0390323 0)
(-0.044691 0.0426234 0)
(-0.060828 0.0319517 0)
(-0.0760858 0.0223831 0)
(-0.0834863 0.000910627 0)
(-0.0827401 -0.0171954 0)
(-0.0715903 -0.0452778 0)
(-0.0411829 -0.0518416 0)
(-0.0116274 -0.0370315 0)
(-0.00716443 0.0413844 0)
(-0.0236986 0.0622566 0)
(-0.0515103 0.0671024 0)
(-0.0709627 0.0490007 0)
(-0.0911804 0.0349569 0)
(-0.103972 0.00279904 0)
(-0.109795 -0.0258171 0)
(-0.101605 -0.0736936 0)
(-0.0665047 -0.0935485 0)
(-0.0198503 -0.0762909 0)
(-0.0139734 0.0535046 0)
(-0.036672 0.0826802 0)
(-0.0701419 0.0900214 0)
(-0.0941169 0.0709368 0)
(-0.118092 0.0561704 0)
(-0.136474 0.0191629 0)
(-0.150105 -0.0182451 0)
(-0.146174 -0.0884253 0)
(-0.107859 -0.13237 0)
(-0.0352979 -0.122526 0)
(-0.0153993 0.0929561 0)
(-0.0379223 0.117674 0)
(-0.0712921 0.125771 0)
(-0.0937801 0.0955202 0)
(-0.11752 0.0781328 0)
(-0.134946 0.032856 0)
(-0.155402 -0.0157675 0)
(-0.156814 -0.118382 0)
(-0.130928 -0.20581 0)
(-0.0489815 -0.22296 0)
(-0.0399188 0.105058 0)
(-0.0705474 0.137047 0)
(-0.0842529 0.146178 0)
(-0.0904348 0.115966 0)
(-0.0920893 0.0988447 0)
(-0.0903719 0.0563438 0)
(-0.104895 0.00641543 0)
(-0.105138 -0.112113 0)
(-0.111552 -0.236253 0)
(-0.052087 -0.300859 0)
(-0.0362298 0.206543 0)
(-0.0249441 0.160239 0)
(0.00893642 0.149161 0)
(0.0507136 0.101257 0)
(0.0838124 0.0802594 0)
(0.127014 0.0428563 0)
(0.133931 0.00110418 0)
(0.148316 -0.114391 0)
(0.0746565 -0.25811 0)
(0.0175332 -0.394317 0)
(0.147141 0.160513 0)
(0.235572 0.0891099 0)
(0.384476 0.0723081 0)
(0.461592 0.0403692 0)
(0.521984 0.0259542 0)
(0.569979 0.00686663 0)
(0.569855 -0.0078141 0)
(0.566655 -0.0468224 0)
(0.407844 -0.0913099 0)
(0.219534 -0.194978 0)
)
;

boundaryField
{
    movingWall
    {
        type            fixedValue;
        value           uniform (1 0 0);
    }
    fixedWalls
    {
        type            noSlip;
    }
    frontAndBack
    {
        type            empty;
    }
}


// ************************************************************************* //
