/*--------------------------------*- C++ -*----------------------------------*\
| =========                 |                                                 |
| \\      /  F ield         | OpenFOAM: The Open Source CFD Toolbox           |
|  \\    /   O peration     | Version:  4.1                                   |
|   \\  /    A nd           | Web:      www.OpenFOAM.org                      |
|    \\/     M anipulation  |                                                 |
\*---------------------------------------------------------------------------*/
FoamFile
{
    version     2.0;
    format      ascii;
    class       volVectorField;
    location    "0.117";
    object      U;
}
// * * * * * * * * * * * * * * * * * * * * * * * * * * * * * * * * * * * * * //

dimensions      [0 1 -1 0 0 0 0];

internalField   nonuniform List<vector> 
6400
(
(7.99473e-06 -7.95965e-06 0)
(3.01737e-05 -1.15904e-05 0)
(4.83416e-05 -8.0458e-06 0)
(5.63477e-05 1.21735e-06 0)
(4.99772e-05 1.41934e-05 0)
(2.67507e-05 2.93138e-05 0)
(-1.45538e-05 4.54363e-05 0)
(-7.42436e-05 6.17505e-05 0)
(-0.000151979 7.76878e-05 0)
(-0.000246967 9.28529e-05 0)
(-0.000358102 0.000106975 0)
(-0.000484069 0.000119873 0)
(-0.000623415 0.000131431 0)
(-0.000774603 0.000141579 0)
(-0.00093605 0.000150282 0)
(-0.00110616 0.000157529 0)
(-0.00128334 0.00016333 0)
(-0.001466 0.000167707 0)
(-0.00165263 0.000170692 0)
(-0.0018417 0.000172326 0)
(-0.00203178 0.000172655 0)
(-0.00222146 0.000171729 0)
(-0.00240941 0.0001696 0)
(-0.00259433 0.000166326 0)
(-0.00277501 0.000161962 0)
(-0.00295029 0.000156568 0)
(-0.00311908 0.000150202 0)
(-0.00328035 0.000142925 0)
(-0.00343314 0.000134798 0)
(-0.00357656 0.000125881 0)
(-0.00370977 0.000116237 0)
(-0.00383201 0.000105926 0)
(-0.0039426 9.5012e-05 0)
(-0.0040409 8.3558e-05 0)
(-0.00412637 7.16276e-05 0)
(-0.00419852 5.92854e-05 0)
(-0.00425693 4.65968e-05 0)
(-0.00430126 3.36283e-05 0)
(-0.00433125 2.04471e-05 0)
(-0.00434671 7.12178e-06 0)
(-0.0043475 -6.278e-06 0)
(-0.00433359 -1.96814e-05 0)
(-0.00430501 -3.30165e-05 0)
(-0.00426189 -4.62102e-05 0)
(-0.0042044 -5.9188e-05 0)
(-0.00413284 -7.18748e-05 0)
(-0.00404755 -8.41943e-05 0)
(-0.00394899 -9.60697e-05 0)
(-0.00383767 -0.000107424 0)
(-0.0037142 -0.000118178 0)
(-0.00357929 -0.000128256 0)
(-0.00343371 -0.000137579 0)
(-0.00327833 -0.000146072 0)
(-0.00311408 -0.000153658 0)
(-0.00294201 -0.000160265 0)
(-0.00276321 -0.000165819 0)
(-0.00257887 -0.000170252 0)
(-0.00239025 -0.000173498 0)
(-0.00219867 -0.000175496 0)
(-0.00200553 -0.000176187 0)
(-0.00181229 -0.00017552 0)
(-0.00162044 -0.000173451 0)
(-0.00143154 -0.000169943 0)
(-0.00124717 -0.000164966 0)
(-0.00106897 -0.000158506 0)
(-0.00089854 -0.000150559 0)
(-0.000737523 -0.000141139 0)
(-0.000587521 -0.000130283 0)
(-0.000450096 -0.000118055 0)
(-0.000326731 -0.000104553 0)
(-0.000218795 -8.99257e-05 0)
(-0.000127483 -7.43857e-05 0)
(-5.37502e-05 -5.82332e-05 0)
(1.7943e-06 -4.189e-05 0)
(3.90183e-05 -2.59452e-05 0)
(5.84544e-05 -1.12187e-05 0)
(6.15525e-05 1.155e-06 0)
(5.09968e-05 9.64697e-06 0)
(3.11386e-05 1.23539e-05 0)
(8.13306e-06 8.06647e-06 0)
(1.17544e-05 -3.01131e-05 0)
(4.53738e-05 -4.48908e-05 0)
(6.49991e-05 -2.68184e-05 0)
(5.63989e-05 1.38164e-05 0)
(9.56589e-06 6.88312e-05 0)
(-8.16043e-05 0.000132126 0)
(-0.000220311 0.000199258 0)
(-0.000407543 0.000267039 0)
(-0.000642652 0.000333203 0)
(-0.000923788 0.00039616 0)
(-0.00124823 0.000454806 0)
(-0.00161266 0.000508394 0)
(-0.00201331 0.000556438 0)
(-0.00244615 0.000598639 0)
(-0.00290697 0.000634842 0)
(-0.00339147 0.000664996 0)
(-0.00389532 0.000689125 0)
(-0.00441423 0.000707315 0)
(-0.00494396 0.000719694 0)
(-0.00548036 0.000726422 0)
(-0.0060194 0.000727686 0)
(-0.00655717 0.00072369 0)
(-0.00708992 0.000714653 0)
(-0.00761405 0.000700805 0)
(-0.00812612 0.000682383 0)
(-0.00862286 0.000659629 0)
(-0.00910118 0.000632791 0)
(-0.00955818 0.000602122 0)
(-0.00999113 0.000567873 0)
(-0.0103975 0.000530303 0)
(-0.0107749 0.00048967 0)
(-0.0111212 0.000446234 0)
(-0.0114344 0.00040026 0)
(-0.0117128 0.000352013 0)
(-0.0119548 0.000301762 0)
(-0.0121589 0.00024978 0)
(-0.0123241 0.000196342 0)
(-0.0124494 0.000141729 0)
(-0.012534 8.62251e-05 0)
(-0.0125774 3.01182e-05 0)
(-0.0125792 -2.62978e-05 0)
(-0.0125394 -8.27245e-05 0)
(-0.012458 -0.000138859 0)
(-0.0123354 -0.000194393 0)
(-0.0121721 -0.000249014 0)
(-0.011969 -0.000302406 0)
(-0.0117271 -0.000354249 0)
(-0.0114476 -0.00040422 0)
(-0.0111321 -0.000451994 0)
(-0.0107823 -0.000497247 0)
(-0.0104001 -0.000539651 0)
(-0.00998781 -0.000578885 0)
(-0.00954784 -0.000614627 0)
(-0.00908287 -0.000646563 0)
(-0.00859579 -0.000674384 0)
(-0.00808973 -0.000697791 0)
(-0.00756802 -0.000716497 0)
(-0.00703418 -0.00073023 0)
(-0.00649192 -0.000738731 0)
(-0.00594514 -0.000741766 0)
(-0.00539788 -0.000739123 0)
(-0.00485432 -0.000730619 0)
(-0.00431875 -0.000716102 0)
(-0.00379555 -0.000695464 0)
(-0.00328914 -0.000668642 0)
(-0.00280395 -0.000635632 0)
(-0.00234441 -0.000596503 0)
(-0.00191481 -0.000551411 0)
(-0.00151931 -0.000500627 0)
(-0.0011618 -0.000444573 0)
(-0.000845817 -0.000383861 0)
(-0.000574391 -0.000319364 0)
(-0.000349851 -0.000252305 0)
(-0.000173589 -0.000184382 0)
(-4.57388e-05 -0.000117937 0)
(3.52366e-05 -5.61958e-05 0)
(7.30806e-05 -3.56614e-06 0)
(7.43791e-05 3.40077e-05 0)
(4.94621e-05 4.87095e-05 0)
(1.26149e-05 3.10018e-05 0)
(8.41093e-06 -4.84574e-05 0)
(2.80901e-05 -6.45797e-05 0)
(2.09008e-05 -1.91402e-05 0)
(-3.15176e-05 6.83354e-05 0)
(-0.000142542 0.000182815 0)
(-0.000320587 0.000313015 0)
(-0.000570228 0.000450575 0)
(-0.000893006 0.000589376 0)
(-0.00128813 0.000724974 0)
(-0.00175303 0.000854182 0)
(-0.00228382 0.000974741 0)
(-0.00287562 0.00108508 0)
(-0.00352289 0.00118416 0)
(-0.00421955 0.0012713 0)
(-0.00495924 0.00134613 0)
(-0.00573541 0.0014085 0)
(-0.00654142 0.00145841 0)
(-0.00737061 0.00149599 0)
(-0.00821642 0.00152149 0)
(-0.00907237 0.0015352 0)
(-0.00993215 0.00153749 0)
(-0.0107896 0.00152877 0)
(-0.0116389 0.00150947 0)
(-0.0124743 0.00148007 0)
(-0.0132903 0.00144105 0)
(-0.0140818 0.00139291 0)
(-0.0148439 0.00133617 0)
(-0.015572 0.00127135 0)
(-0.0162617 0.00119898 0)
(-0.016909 0.0011196 0)
(-0.0175101 0.00103375 0)
(-0.0180616 0.000941992 0)
(-0.0185603 0.000844871 0)
(-0.0190035 0.000742954 0)
(-0.0193887 0.000636809 0)
(-0.0197135 0.000527014 0)
(-0.0199763 0.000414154 0)
(-0.0201754 0.000298821 0)
(-0.0203097 0.000181617 0)
(-0.0203783 6.31548e-05 0)
(-0.0203807 -5.59452e-05 0)
(-0.0203168 -0.000175052 0)
(-0.0201866 -0.000293523 0)
(-0.0199909 -0.00041071 0)
(-0.0197304 -0.000525953 0)
(-0.0194066 -0.000638585 0)
(-0.019021 -0.000747931 0)
(-0.0185756 -0.000853313 0)
(-0.018073 -0.00095405 0)
(-0.0175157 -0.00104946 0)
(-0.0169071 -0.00113885 0)
(-0.0162506 -0.00122156 0)
(-0.0155502 -0.00129691 0)
(-0.0148099 -0.00136425 0)
(-0.0140346 -0.00142294 0)
(-0.013229 -0.00147236 0)
(-0.0123984 -0.0015119 0)
(-0.0115485 -0.00154102 0)
(-0.0106851 -0.00155919 0)
(-0.00981416 -0.00156592 0)
(-0.00894218 -0.0015608 0)
(-0.00807564 -0.00154345 0)
(-0.00722124 -0.0015136 0)
(-0.00638578 -0.00147103 0)
(-0.00557611 -0.00141565 0)
(-0.00479908 -0.00134748 0)
(-0.00406144 -0.00126671 0)
(-0.00336977 -0.0011737 0)
(-0.00273035 -0.00106907 0)
(-0.00214902 -0.000953718 0)
(-0.00163102 -0.000828954 0)
(-0.00118077 -0.000696592 0)
(-0.000801617 -0.000559125 0)
(-0.000495455 -0.000419944 0)
(-0.000262347 -0.000283644 0)
(-9.99776e-05 -0.000156413 0)
(-3.00321e-06 -4.65469e-05 0)
(3.76684e-05 3.4939e-05 0)
(3.58922e-05 7.36051e-05 0)
(1.02012e-05 5.10293e-05 0)
(-5.83285e-07 -5.69743e-05 0)
(-1.14766e-05 -5.66948e-05 0)
(-6.47237e-05 3.30049e-05 0)
(-0.000180361 0.000184391 0)
(-0.000373302 0.000375881 0)
(-0.000653034 0.000590968 0)
(-0.00102477 0.000817167 0)
(-0.00149024 0.00104513 0)
(-0.00204842 0.00126792 0)
(-0.00269611 0.00148046 0)
(-0.00342847 0.00167905 0)
(-0.0042394 0.00186109 0)
(-0.00512186 0.00202476 0)
(-0.00606814 0.00216889 0)
(-0.00707006 0.00229276 0)
(-0.00811919 0.00239603 0)
(-0.00920689 0.00247865 0)
(-0.0103245 0.00254077 0)
(-0.0114635 0.00258272 0)
(-0.0126152 0.00260497 0)
(-0.0137715 0.00260807 0)
(-0.0149242 0.00259268 0)
(-0.0160654 0.00255951 0)
(-0.0171876 0.00250931 0)
(-0.0182836 0.00244289 0)
(-0.0193465 0.00236107 0)
(-0.0203698 0.00226472 0)
(-0.0213472 0.0021547 0)
(-0.0222729 0.00203191 0)
(-0.0231416 0.00189725 0)
(-0.0239483 0.00175164 0)
(-0.0246883 0.00159601 0)
(-0.0253574 0.00143131 0)
(-0.0259519 0.00125848 0)
(-0.0264683 0.0010785 0)
(-0.0269039 0.00089235 0)
(-0.027256 0.000701015 0)
(-0.0275228 0.000505506 0)
(-0.0277024 0.000306847 0)
(-0.0277939 0.000106078 0)
(-0.0277966 -9.57472e-05 0)
(-0.0277102 -0.000297556 0)
(-0.0275351 -0.000498262 0)
(-0.0272719 -0.000696763 0)
(-0.026922 -0.000891942 0)
(-0.0264871 -0.00108267 0)
(-0.0259694 -0.00126781 0)
(-0.0253716 -0.00144622 0)
(-0.024697 -0.00161674 0)
(-0.0239493 -0.00177823 0)
(-0.0231327 -0.00192954 0)
(-0.0222519 -0.00206954 0)
(-0.0213121 -0.0021971 0)
(-0.0203191 -0.00231113 0)
(-0.0192788 -0.00241057 0)
(-0.018198 -0.00249437 0)
(-0.0170835 -0.00256156 0)
(-0.0159428 -0.00261121 0)
(-0.0147836 -0.00264246 0)
(-0.0136139 -0.00265454 0)
(-0.0124423 -0.00264675 0)
(-0.0112772 -0.00261853 0)
(-0.0101275 -0.00256942 0)
(-0.00900203 -0.00249914 0)
(-0.00790982 -0.00240757 0)
(-0.00685974 -0.00229482 0)
(-0.00586056 -0.00216126 0)
(-0.00492075 -0.00200756 0)
(-0.00404837 -0.00183481 0)
(-0.00325087 -0.00164458 0)
(-0.00253489 -0.00143909 0)
(-0.00190598 -0.00122133 0)
(-0.0013683 -0.000995373 0)
(-0.000924245 -0.000766616 0)
(-0.00057394 -0.000542233 0)
(-0.00031471 -0.000331682 0)
(-0.000140399 -0.000147375 0)
(-4.06626e-05 -5.46704e-06 0)
(5.87689e-08 7.32009e-05 0)
(2.14864e-06 6.2189e-05 0)
(-1.32928e-05 -5.15228e-05 0)
(-6.54558e-05 -1.1312e-05 0)
(-0.000177543 0.000142984 0)
(-0.000369823 0.000376982 0)
(-0.000657444 0.000663353 0)
(-0.00104997 0.000980738 0)
(-0.00155253 0.00131263 0)
(-0.0021666 0.0016464 0)
(-0.00289068 0.00197249 0)
(-0.00372092 0.00228374 0)
(-0.00465158 0.00257484 0)
(-0.00567546 0.00284194 0)
(-0.00678427 0.00308235 0)
(-0.0079689 0.00329422 0)
(-0.00921965 0.0034764 0)
(-0.0105264 0.00362828 0)
(-0.0118789 0.00374968 0)
(-0.0132668 0.00384075 0)
(-0.0146796 0.00390189 0)
(-0.0161071 0.00393371 0)
(-0.0175392 0.00393702 0)
(-0.018966 0.00391271 0)
(-0.0203781 0.0038618 0)
(-0.0217661 0.0037854 0)
(-0.0231213 0.00368468 0)
(-0.0244352 0.00356085 0)
(-0.0256999 0.00341518 0)
(-0.0269076 0.00324897 0)
(-0.0280513 0.00306354 0)
(-0.0291244 0.00286026 0)
(-0.0301207 0.0026405 0)
(-0.0310344 0.00240565 0)
(-0.0318606 0.00215714 0)
(-0.0325944 0.00189641 0)
(-0.0332319 0.00162491 0)
(-0.0337693 0.00134413 0)
(-0.0342037 0.00105555 0)
(-0.0345325 0.000760718 0)
(-0.0347539 0.000461163 0)
(-0.0348663 0.00015846 0)
(-0.0348691 -0.0001458 0)
(-0.0347619 -0.000449999 0)
(-0.0345451 -0.000752499 0)
(-0.0342198 -0.00105164 0)
(-0.0337873 -0.00134574 0)
(-0.03325 -0.0016331 0)
(-0.0326105 -0.00191202 0)
(-0.0318722 -0.00218077 0)
(-0.0310391 -0.00243763 0)
(-0.0301157 -0.00268089 0)
(-0.0291074 -0.00290882 0)
(-0.0280198 -0.00311973 0)
(-0.0268593 -0.00331196 0)
(-0.025633 -0.00348387 0)
(-0.0243482 -0.00363388 0)
(-0.0230131 -0.00376047 0)
(-0.0216361 -0.00386219 0)
(-0.0202263 -0.00393768 0)
(-0.0187931 -0.00398568 0)
(-0.0173464 -0.00400508 0)
(-0.0158963 -0.00399488 0)
(-0.0144532 -0.00395428 0)
(-0.0130278 -0.00388268 0)
(-0.0116308 -0.0037797 0)
(-0.0102731 -0.00364524 0)
(-0.00896525 -0.00347954 0)
(-0.00771778 -0.00328323 0)
(-0.00654081 -0.0030574 0)
(-0.0054439 -0.00280375 0)
(-0.00443589 -0.00252465 0)
(-0.00352461 -0.00222341 0)
(-0.00271664 -0.00190443 0)
(-0.00201693 -0.00157352 0)
(-0.00142844 -0.00123831 0)
(-0.000951631 -0.000908698 0)
(-0.00058394 -0.000597494 0)
(-0.000319128 -0.000321145 0)
(-0.000146608 -0.000100631 0)
(-5.03938e-05 3.75303e-05 0)
(-9.67345e-06 6.031e-05 0)
(-2.82545e-05 -2.9586e-05 0)
(-0.000128194 7.78951e-05 0)
(-0.00030722 0.00031969 0)
(-0.000585018 0.000656369 0)
(-0.000976104 0.00105585 0)
(-0.00148934 0.00149253 0)
(-0.00212917 0.00194619 0)
(-0.00289638 0.00240105 0)
(-0.00378873 0.00284495 0)
(-0.00480153 0.00326857 0)
(-0.00592813 0.00366491 0)
(-0.00716031 0.00402879 0)
(-0.00848861 0.00435647 0)
(-0.00990267 0.00464536 0)
(-0.0113915 0.00489378 0)
(-0.0129435 0.00510079 0)
(-0.0145469 0.00526602 0)
(-0.0161899 0.00538957 0)
(-0.0178605 0.00547189 0)
(-0.0195468 0.00551377 0)
(-0.0212372 0.0055162 0)
(-0.0229204 0.00548039 0)
(-0.0245853 0.0054077 0)
(-0.0262211 0.0052996 0)
(-0.0278176 0.00515768 0)
(-0.029365 0.00498361 0)
(-0.0308539 0.00477912 0)
(-0.0322755 0.004546 0)
(-0.0336215 0.00428609 0)
(-0.0348841 0.00400127 0)
(-0.0360561 0.00369345 0)
(-0.0371309 0.00336458 0)
(-0.0381024 0.00301665 0)
(-0.0389653 0.00265165 0)
(-0.0397147 0.00227163 0)
(-0.0403463 0.00187866 0)
(-0.0408568 0.00147484 0)
(-0.041243 0.0010623 0)
(-0.0415028 0.000643204 0)
(-0.0416346 0.000219746 0)
(-0.0416374 -0.000205844 0)
(-0.0415109 -0.000631307 0)
(-0.0412556 -0.00105435 0)
(-0.0408727 -0.00147266 0)
(-0.0403639 -0.00188388 0)
(-0.0397318 -0.00228566 0)
(-0.0389796 -0.00267561 0)
(-0.0381113 -0.00305133 0)
(-0.0371315 -0.00341044 0)
(-0.0360457 -0.00375054 0)
(-0.0348598 -0.00406925 0)
(-0.0335806 -0.00436425 0)
(-0.0322156 -0.0046332 0)
(-0.0307729 -0.00487388 0)
(-0.0292612 -0.00508409 0)
(-0.0276898 -0.00526176 0)
(-0.0260687 -0.00540488 0)
(-0.0244084 -0.00551162 0)
(-0.0227197 -0.00558027 0)
(-0.0210141 -0.00560932 0)
(-0.0193033 -0.00559746 0)
(-0.0175994 -0.00554364 0)
(-0.0159146 -0.00544708 0)
(-0.0142613 -0.00530735 0)
(-0.0126518 -0.00512439 0)
(-0.0110985 -0.00489863 0)
(-0.00961335 -0.00463101 0)
(-0.00820781 -0.00432315 0)
(-0.00689285 -0.00397743 0)
(-0.00567852 -0.00359718 0)
(-0.00457378 -0.00318692 0)
(-0.0035862 -0.00275256 0)
(-0.00272157 -0.00230182 0)
(-0.00198359 -0.0018446 0)
(-0.00137335 -0.00139355 0)
(-0.000888862 -0.000964721 0)
(-0.000524409 -0.000578319 0)
(-0.000269932 -0.000259608 0)
(-0.000109879 -3.98646e-05 0)
(-2.38185e-05 4.28086e-05 0)
(-4.44494e-05 1.02305e-05 0)
(-0.000195766 0.00021471 0)
(-0.000446469 0.000568745 0)
(-0.000815263 0.00102929 0)
(-0.00131548 0.00156053 0)
(-0.00195473 0.00213329 0)
(-0.00273629 0.00272409 0)
(-0.00365985 0.00331426 0)
(-0.00472215 0.00388915 0)
(-0.00591752 0.00443735 0)
(-0.00723826 0.00495013 0)
(-0.00867511 0.00542093 0)
(-0.0102175 0.00584492 0)
(-0.0118539 0.0062187 0)
(-0.0135721 0.00654 0)
(-0.0153593 0.00680747 0)
(-0.0172023 0.00702053 0)
(-0.019088 0.00717918 0)
(-0.0210029 0.00728394 0)
(-0.022934 0.00733571 0)
(-0.0248682 0.00733574 0)
(-0.0267926 0.00728551 0)
(-0.028695 0.00718677 0)
(-0.0305632 0.00704139 0)
(-0.0323858 0.00685142 0)
(-0.0341516 0.00661902 0)
(-0.0358502 0.00634646 0)
(-0.0374715 0.00603607 0)
(-0.0390061 0.00569026 0)
(-0.0404454 0.0053115 0)
(-0.0417812 0.00490232 0)
(-0.0430059 0.00446529 0)
(-0.0441128 0.00400303 0)
(-0.0450957 0.0035182 0)
(-0.0459492 0.0030135 0)
(-0.0466685 0.00249167 0)
(-0.0472496 0.00195549 0)
(-0.0476893 0.00140781 0)
(-0.0479849 0.000851477 0)
(-0.0481347 0.000289415 0)
(-0.0481376 -0.000275423 0)
(-0.0479933 -0.000840044 0)
(-0.0477023 -0.00140141 0)
(-0.047266 -0.00195646 0)
(-0.0466864 -0.00250208 0)
(-0.0459664 -0.00303515 0)
(-0.0451096 -0.00355252 0)
(-0.0441205 -0.00405104 0)
(-0.0430044 -0.00452754 0)
(-0.0417674 -0.00497889 0)
(-0.0404163 -0.00540195 0)
(-0.0389588 -0.00579365 0)
(-0.0374032 -0.00615095 0)
(-0.0357587 -0.00647093 0)
(-0.0340351 -0.00675072 0)
(-0.0322429 -0.0069876 0)
(-0.0303933 -0.00717899 0)
(-0.0284981 -0.0073225 0)
(-0.0265695 -0.00741594 0)
(-0.0246203 -0.00745737 0)
(-0.0226637 -0.00744513 0)
(-0.0207131 -0.0073779 0)
(-0.0187822 -0.00725474 0)
(-0.0168849 -0.00707517 0)
(-0.015035 -0.00683922 0)
(-0.0132461 -0.00654751 0)
(-0.0115315 -0.00620138 0)
(-0.00990411 -0.00580303 0)
(-0.00837606 -0.00535562 0)
(-0.00695857 -0.0048635 0)
(-0.0056617 -0.00433248 0)
(-0.00449401 -0.00377007 0)
(-0.00346229 -0.00318589 0)
(-0.00257115 -0.00259213 0)
(-0.00182261 -0.00200408 0)
(-0.00121564 -0.0014408 0)
(-0.000745551 -0.00092588 0)
(-0.000403349 -0.000488228 0)
(-0.000174468 -0.000162927 0)
(-3.92658e-05 8.21662e-06 0)
(-6.1197e-05 6.85525e-05 0)
(-0.000265523 0.000401094 0)
(-0.000590287 0.000893326 0)
(-0.00105306 0.00149978 0)
(-0.0016657 0.00218183 0)
(-0.00243418 0.00290743 0)
(-0.00336024 0.0036503 0)
(-0.00444218 0.00438924 0)
(-0.00567545 0.0051073 0)
(-0.00705318 0.0057911 0)
(-0.00856656 0.00643025 0)
(-0.0102052 0.00701681 0)
(-0.0119574 0.00754485 0)
(-0.0138105 0.00801012 0)
(-0.0157511 0.00840973 0)
(-0.0177653 0.00874191 0)
(-0.0198387 0.00900581 0)
(-0.0219568 0.00920134 0)
(-0.0241052 0.00932904 0)
(-0.0262693 0.00938996 0)
(-0.0284349 0.00938557 0)
(-0.030588 0.00931769 0)
(-0.032715 0.00918841 0)
(-0.0348027 0.00900009 0)
(-0.0368383 0.00875525 0)
(-0.0388098 0.00845659 0)
(-0.0407055 0.00810695 0)
(-0.0425143 0.00770927 0)
(-0.0442261 0.00726658 0)
(-0.045831 0.00678203 0)
(-0.0473202 0.0062588 0)
(-0.0486854 0.00570015 0)
(-0.0499189 0.00510942 0)
(-0.0510142 0.00448998 0)
(-0.0519651 0.00384529 0)
(-0.0527665 0.00317882 0)
(-0.0534138 0.00249413 0)
(-0.0539035 0.00179483 0)
(-0.0542327 0.00108457 0)
(-0.0543995 0.000367054 0)
(-0.0544027 -0.000353944 0)
(-0.054242 -0.00107461 0)
(-0.0539179 -0.0017911 0)
(-0.053432 -0.00249948 0)
(-0.0527865 -0.00319583 0)
(-0.0519845 -0.00387616 0)
(-0.0510302 -0.00453649 0)
(-0.0499284 -0.00517281 0)
(-0.0486851 -0.00578111 0)
(-0.0473069 -0.00635741 0)
(-0.0458013 -0.00689776 0)
(-0.0441768 -0.00739827 0)
(-0.0424426 -0.00785511 0)
(-0.0406088 -0.00826459 0)
(-0.0386862 -0.0086231 0)
(-0.0366863 -0.00892724 0)
(-0.0346214 -0.00917378 0)
(-0.0325045 -0.00935972 0)
(-0.030349 -0.00948235 0)
(-0.0281689 -0.00953927 0)
(-0.0259787 -0.00952845 0)
(-0.0237931 -0.00944829 0)
(-0.021627 -0.0092977 0)
(-0.0194958 -0.00907612 0)
(-0.0174143 -0.0087837 0)
(-0.0153976 -0.00842131 0)
(-0.0134601 -0.00799071 0)
(-0.0116161 -0.0074947 0)
(-0.00987879 -0.00693729 0)
(-0.00826055 -0.00632389 0)
(-0.00677256 -0.00566163 0)
(-0.00542447 -0.00495963 0)
(-0.00422417 -0.00422938 0)
(-0.00317741 -0.00348527 0)
(-0.00228739 -0.00274504 0)
(-0.00155436 -0.00203049 0)
(-0.000975014 -0.00136814 0)
(-0.000541817 -0.000789894 0)
(-0.000241489 -0.00033378 0)
(-5.53269e-05 -4.41606e-05 0)
(-7.80567e-05 0.000145505 0)
(-0.000335734 0.00063776 0)
(-0.000735329 0.00129487 0)
(-0.00129331 0.00206988 0)
(-0.00201988 0.00292217 0)
(-0.0029192 0.00381742 0)
(-0.00399119 0.00472709 0)
(-0.00523252 0.00562776 0)
(-0.00663714 0.00650046 0)
(-0.00819679 0.00733001 0)
(-0.0099014 0.00810446 0)
(-0.0117394 0.00881455 0)
(-0.0136979 0.00945329 0)
(-0.0157631 0.0100156 0)
(-0.0179206 0.0104979 0)
(-0.0201551 0.0108981 0)
(-0.0224514 0.011215 0)
(-0.0247937 0.0114484 0)
(-0.0271663 0.0115989 0)
(-0.0295538 0.0116676 0)
(-0.0319407 0.0116564 0)
(-0.034312 0.0115672 0)
(-0.0366528 0.0114028 0)
(-0.038949 0.0111657 0)
(-0.0411868 0.0108592 0)
(-0.0433531 0.0104865 0)
(-0.0454352 0.010051 0)
(-0.0474214 0.0095563 0)
(-0.0493003 0.00900619 0)
(-0.0510616 0.00840446 0)
(-0.0526954 0.00775506 0)
(-0.0541929 0.00706199 0)
(-0.0555458 0.00632935 0)
(-0.0567469 0.00556132 0)
(-0.0577896 0.00476214 0)
(-0.0586682 0.00393613 0)
(-0.0593779 0.00308766 0)
(-0.0599148 0.00222119 0)
(-0.0602759 0.00134124 0)
(-0.0604589 0.000452385 0)
(-0.0604627 -0.000440724 0)
(-0.0602869 -0.00133338 0)
(-0.0599322 -0.00222082 0)
(-0.0594 -0.00309822 0)
(-0.0586929 -0.00396073 0)
(-0.0578144 -0.00480345 0)
(-0.0567688 -0.00562146 0)
(-0.0555615 -0.00640982 0)
(-0.0541988 -0.00716363 0)
(-0.0526879 -0.00787798 0)
(-0.0510371 -0.00854802 0)
(-0.0492555 -0.00916897 0)
(-0.047353 -0.00973617 0)
(-0.0453405 -0.0102451 0)
(-0.0432297 -0.0106913 0)
(-0.0410332 -0.0110707 0)
(-0.0387641 -0.0113793 0)
(-0.0364365 -0.0116135 0)
(-0.0340649 -0.01177 0)
(-0.0316644 -0.0118459 0)
(-0.0292506 -0.0118388 0)
(-0.0268394 -0.0117468 0)
(-0.024447 -0.0115687 0)
(-0.0220898 -0.0113038 0)
(-0.0197839 -0.0109523 0)
(-0.0175455 -0.0105155 0)
(-0.0153904 -0.00999552 0)
(-0.0133337 -0.00939578 0)
(-0.0113901 -0.00872115 0)
(-0.00957297 -0.00797813 0)
(-0.00789469 -0.00717513 0)
(-0.00636613 -0.00632284 0)
(-0.00499638 -0.00543457 0)
(-0.00379251 -0.00452673 0)
(-0.00275915 -0.00361933 0)
(-0.00189808 -0.00273657 0)
(-0.00120764 -0.00190743 0)
(-0.000681954 -0.00116628 0)
(-0.000309183 -0.000553292 0)
(-7.15533e-05 -0.000114509 0)
(-9.47545e-05 0.000240898 0)
(-0.000405313 0.000924595 0)
(-0.000879447 0.00177363 0)
(-0.00153262 0.00274024 0)
(-0.0023734 0.00378248 0)
(-0.00340396 0.00486433 0)
(-0.00462229 0.00595542 0)
(-0.0060232 0.0070305 0)
(-0.00759898 0.00806885 0)
(-0.00933986 0.00905368 0)
(-0.0112344 0.00997163 0)
(-0.0132696 0.0108122 0)
(-0.0154315 0.0115675 0)
(-0.0177052 0.0122314 0)
(-0.0200749 0.0128001 0)
(-0.0225245 0.0132707 0)
(-0.0250375 0.0136419 0)
(-0.0275971 0.0139135 0)
(-0.0301867 0.014086 0)
(-0.0327896 0.0141608 0)
(-0.0353894 0.0141398 0)
(-0.03797 0.0140256 0)
(-0.0405157 0.013821 0)
(-0.0430113 0.0135294 0)
(-0.0454421 0.0131544 0)
(-0.047794 0.0126998 0)
(-0.0500537 0.0121699 0)
(-0.0522084 0.0115688 0)
(-0.0542462 0.0109011 0)
(-0.0561558 0.0101713 0)
(-0.0579269 0.00938408 0)
(-0.0595498 0.00854437 0)
(-0.0610159 0.00765704 0)
(-0.0623172 0.00672712 0)
(-0.0634469 0.00575972 0)
(-0.0643988 0.00476004 0)
(-0.0651678 0.00373336 0)
(-0.0657497 0.00268503 0)
(-0.0661412 0.0016205 0)
(-0.06634 0.000545287 0)
(-0.0663448 -0.000535006 0)
(-0.0661552 -0.00161471 0)
(-0.065772 -0.0026881 0)
(-0.0651967 -0.00374936 0)
(-0.064432 -0.00479266 0)
(-0.0634816 -0.00581211 0)
(-0.0623502 -0.00680179 0)
(-0.0610435 -0.00775579 0)
(-0.0595683 -0.0086682 0)
(-0.0579323 -0.00953314 0)
(-0.0561443 -0.0103448 0)
(-0.0542139 -0.0110975 0)
(-0.0521518 -0.0117855 0)
(-0.0499697 -0.0124036 0)
(-0.04768 -0.0129464 0)
(-0.0452962 -0.0134089 0)
(-0.0428322 -0.0137866 0)
(-0.0403031 -0.014075 0)
(-0.0377242 -0.0142703 0)
(-0.0351119 -0.0143692 0)
(-0.0324827 -0.0143686 0)
(-0.0298536 -0.0142665 0)
(-0.0272419 -0.0140614 0)
(-0.0246649 -0.0137525 0)
(-0.0221402 -0.0133404 0)
(-0.0196849 -0.0128262 0)
(-0.017316 -0.0122128 0)
(-0.0150499 -0.0115042 0)
(-0.0129022 -0.0107059 0)
(-0.0108877 -0.00982573 0)
(-0.00901985 -0.00887321 0)
(-0.00731091 -0.00786053 0)
(-0.00577134 -0.00680269 0)
(-0.00440967 -0.00571799 0)
(-0.00323212 -0.00462844 0)
(-0.00224219 -0.00356033 0)
(-0.00144004 -0.00254471 0)
(-0.000821589 -0.00161784 0)
(-0.000376447 -0.000821504 0)
(-8.76655e-05 -0.000202696 0)
(-0.000111131 0.000354363 0)
(-0.000473621 0.00126097 0)
(-0.00102134 0.00232903 0)
(-0.0017689 0.00351053 0)
(-0.00272328 0.00476265 0)
(-0.00388464 0.00604819 0)
(-0.00524894 0.00733536 0)
(-0.00680901 0.00859739 0)
(-0.00855535 0.00981211 0)
(-0.0104765 0.0109613 0)
(-0.0125596 0.0120305 0)
(-0.0147902 0.0130079 0)
(-0.0171531 0.0138848 0)
(-0.0196321 0.0146544 0)
(-0.0222104 0.0153122 0)
(-0.0248707 0.0158551 0)
(-0.0275955 0.0162815 0)
(-0.0303669 0.016591 0)
(-0.0331673 0.0167842 0)
(-0.0359791 0.0168628 0)
(-0.0387849 0.0168288 0)
(-0.0415676 0.0166852 0)
(-0.0443108 0.0164355 0)
(-0.0469981 0.0160833 0)
(-0.0496143 0.015633 0)
(-0.0521443 0.015089 0)
(-0.054574 0.0144562 0)
(-0.05689 0.0137395 0)
(-0.0590795 0.0129443 0)
(-0.0611308 0.0120758 0)
(-0.0630329 0.0111397 0)
(-0.0647755 0.0101417 0)
(-0.0663494 0.00908743 0)
(-0.0677465 0.00798297 0)
(-0.0689591 0.00683429 0)
(-0.069981 0.00564753 0)
(-0.0708068 0.00442892 0)
(-0.0714318 0.0031848 0)
(-0.0718527 0.00192158 0)
(-0.072067 0.000645789 0)
(-0.0720733 -0.000635972 0)
(-0.0718713 -0.00191701 0)
(-0.0714616 -0.00319057 0)
(-0.070846 -0.00444979 0)
(-0.0700272 -0.0056878 0)
(-0.0690092 -0.00689766 0)
(-0.0677969 -0.00807239 0)
(-0.0663963 -0.00920502 0)
(-0.0648146 -0.0102886 0)
(-0.0630599 -0.0113162 0)
(-0.0611415 -0.0122811 0)
(-0.0590696 -0.0131764 0)
(-0.0568555 -0.0139956 0)
(-0.0545114 -0.0147323 0)
(-0.0520506 -0.0153805 0)
(-0.0494871 -0.0159342 0)
(-0.0468359 -0.016388 0)
(-0.0441128 -0.0167369 0)
(-0.0413341 -0.0169764 0)
(-0.0385169 -0.0171024 0)
(-0.0356789 -0.0171116 0)
(-0.0328379 -0.0170016 0)
(-0.0300124 -0.0167706 0)
(-0.0272208 -0.0164179 0)
(-0.0244816 -0.0159439 0)
(-0.0218131 -0.0153503 0)
(-0.0192334 -0.0146401 0)
(-0.0167601 -0.0138181 0)
(-0.0144101 -0.0128906 0)
(-0.0121992 -0.0118662 0)
(-0.0101425 -0.0107558 0)
(-0.00825347 -0.009573 0)
(-0.00654407 -0.0083343 0)
(-0.00502444 -0.00705966 0)
(-0.00370256 -0.0057729 0)
(-0.00258377 -0.00450208 0)
(-0.00167014 -0.00327996 0)
(-0.000959421 -0.00214429 0)
(-0.000442635 -0.00113793 0)
(-0.000103502 -0.000308402 0)
(-0.000127105 0.000485433 0)
(-0.000540327 0.00164595 0)
(-0.0011603 0.00296003 0)
(-0.00200096 0.00437977 0)
(-0.00306778 0.00586188 0)
(-0.00435894 0.00736834 0)
(-0.00586829 0.00886629 0)
(-0.00758667 0.0103278 0)
(-0.00950263 0.0117295 0)
(-0.011603 0.013052 0)
(-0.0138733 0.0142796 0)
(-0.0162976 0.0153998 0)
(-0.0188594 0.016403 0)
(-0.0215412 0.0172817 0)
(-0.024325 0.018031 0)
(-0.0271925 0.0186474 0)
(-0.030125 0.0191291 0)
(-0.0331037 0.0194758 0)
(-0.03611 0.0196881 0)
(-0.0391254 0.0197677 0)
(-0.0421315 0.0197172 0)
(-0.0451104 0.0195399 0)
(-0.0480448 0.0192397 0)
(-0.0509177 0.0188209 0)
(-0.0537128 0.0182884 0)
(-0.0564146 0.0176473 0)
(-0.0590081 0.0169033 0)
(-0.0614792 0.0160621 0)
(-0.0638147 0.0151297 0)
(-0.066002 0.0141125 0)
(-0.0680298 0.0130167 0)
(-0.0698873 0.011849 0)
(-0.0715648 0.0106162 0)
(-0.0730536 0.0093251 0)
(-0.0743461 0.00798267 0)
(-0.0754353 0.00659605 0)
(-0.0763157 0.00517248 0)
(-0.0769825 0.00371931 0)
(-0.077432 0.00224398 0)
(-0.0776618 0.000754075 0)
(-0.0776703 -0.000742747 0)
(-0.0774571 -0.00223872 0)
(-0.0770229 -0.003726 0)
(-0.0763695 -0.00519664 0)
(-0.0754998 -0.00664267 0)
(-0.074418 -0.00805602 0)
(-0.073129 -0.00942863 0)
(-0.0716394 -0.0107524 0)
(-0.0699564 -0.0120193 0)
(-0.0680887 -0.0132214 0)
(-0.0660458 -0.0143506 0)
(-0.0638386 -0.0153993 0)
(-0.0614788 -0.0163598 0)
(-0.0589793 -0.0172247 0)
(-0.0563539 -0.017987 0)
(-0.0536173 -0.0186399 0)
(-0.0507853 -0.0191772 0)
(-0.0478744 -0.019593 0)
(-0.0449018 -0.0198821 0)
(-0.0418854 -0.0200399 0)
(-0.0388437 -0.0200626 0)
(-0.0357958 -0.0199473 0)
(-0.0327608 -0.0196921 0)
(-0.0297583 -0.0192962 0)
(-0.0268078 -0.0187599 0)
(-0.0239289 -0.0180852 0)
(-0.0211407 -0.0172755 0)
(-0.0184619 -0.0163361 0)
(-0.0159108 -0.015274 0)
(-0.0135045 -0.0140989 0)
(-0.0112595 -0.0128227 0)
(-0.00919061 -0.0114603 0)
(-0.00731158 -0.0100294 0)
(-0.00563421 -0.00855178 0)
(-0.00416831 -0.00705259 0)
(-0.00292117 -0.00556148 0)
(-0.0018968 -0.0041126 0)
(-0.00109477 -0.00274484 0)
(-0.000507427 -0.00150181 0)
(-0.000118984 -0.000431214 0)
(-0.000142648 0.000633609 0)
(-0.000605307 0.00207846 0)
(-0.00129603 0.00366533 0)
(-0.00222825 0.00534663 0)
(-0.00340604 0.00707892 0)
(-0.00482563 0.00882364 0)
(-0.00647882 0.0105472 0)
(-0.00835433 0.0122207 0)
(-0.0104388 0.0138199 0)
(-0.0127172 0.0153243 0)
(-0.0151733 0.0167176 0)
(-0.0177898 0.0179863 0)
(-0.0205486 0.01912 0)
(-0.0234311 0.020111 0)
(-0.026418 0.0209536 0)
(-0.0294897 0.0216444 0)
(-0.0326266 0.0221812 0)
(-0.035809 0.0225639 0)
(-0.0390172 0.0227931 0)
(-0.0422318 0.0228708 0)
(-0.0454336 0.0228 0)
(-0.0486039 0.0225844 0)
(-0.0517244 0.0222282 0)
(-0.0547777 0.0217366 0)
(-0.0577465 0.021115 0)
(-0.0606147 0.0203693 0)
(-0.0633668 0.0195058 0)
(-0.065988 0.0185312 0)
(-0.0684644 0.0174524 0)
(-0.0707833 0.0162764 0)
(-0.0729324 0.0150106 0)
(-0.0749007 0.0136625 0)
(-0.0766782 0.0122398 0)
(-0.0782558 0.0107504 0)
(-0.0796253 0.00920225 0)
(-0.0807797 0.00760355 0)
(-0.0817132 0.00596255 0)
(-0.0824207 0.00428766 0)
(-0.0828985 0.00258741 0)
(-0.0831438 0.000870471 0)
(-0.0831552 -0.000854396 0)
(-0.0829321 -0.00257831 0)
(-0.0824753 -0.00429228 0)
(-0.0817865 -0.00598724 0)
(-0.0808689 -0.00765405 0)
(-0.0797266 -0.00928351 0)
(-0.0783649 -0.0108664 0)
(-0.0767904 -0.0123935 0)
(-0.0750108 -0.0138555 0)
(-0.073035 -0.0152434 0)
(-0.0708729 -0.016548 0)
(-0.0685357 -0.0177606 0)
(-0.0660357 -0.0188723 0)
(-0.0633862 -0.0198749 0)
(-0.0606017 -0.0207602 0)
(-0.0576975 -0.0215205 0)
(-0.0546899 -0.0221486 0)
(-0.0515963 -0.0226379 0)
(-0.0484345 -0.0229825 0)
(-0.0452234 -0.0231771 0)
(-0.0419823 -0.0232173 0)
(-0.0387311 -0.0231 0)
(-0.03549 -0.0228227 0)
(-0.0322795 -0.0223846 0)
(-0.0291203 -0.0217861 0)
(-0.0260329 -0.0210292 0)
(-0.0230376 -0.0201176 0)
(-0.0201546 -0.0190572 0)
(-0.0174032 -0.0178557 0)
(-0.0148021 -0.0165236 0)
(-0.0123691 -0.0150737 0)
(-0.0101208 -0.0135221 0)
(-0.00807246 -0.0118879 0)
(-0.00623775 -0.010194 0)
(-0.0046284 -0.008467 0)
(-0.00325368 -0.0067378 0)
(-0.00211956 -0.0050417 0)
(-0.00122739 -0.00341847 0)
(-0.00057072 -0.00191223 0)
(-0.000134085 -0.000570689 0)
(-0.000157765 0.000798397 0)
(-0.000668579 0.00255739 0)
(-0.00142852 0.00444351 0)
(-0.00245066 0.0064096 0)
(-0.0037378 0.00841228 0)
(-0.00528432 0.0104127 0)
(-0.00707992 0.0123768 0)
(-0.00911127 0.0142749 0)
(-0.011363 0.0160821 0)
(-0.0138182 0.0177773 0)
(-0.0164588 0.0193431 0)
(-0.0192661 0.0207657 0)
(-0.0222204 0.0220341 0)
(-0.0253017 0.02314 0)
(-0.0284895 0.0240777 0)
(-0.0317631 0.0248433 0)
(-0.0351019 0.0254348 0)
(-0.038485 0.0258519 0)
(-0.0418918 0.0260956 0)
(-0.045302 0.0261683 0)
(-0.0486957 0.026073 0)
(-0.0520533 0.0258141 0)
(-0.0553559 0.0253964 0)
(-0.0585852 0.0248257 0)
(-0.0617234 0.0241081 0)
(-0.0647537 0.0232502 0)
(-0.06766 0.0222592 0)
(-0.070427 0.0211425 0)
(-0.0730404 0.0199079 0)
(-0.0754868 0.0185635 0)
(-0.0777537 0.0171175 0)
(-0.0798297 0.0155785 0)
(-0.0817042 0.0139551 0)
(-0.0833678 0.0122562 0)
(-0.0848123 0.0104909 0)
(-0.0860303 0.00866839 0)
(-0.0870156 0.006798 0)
(-0.0877631 0.00488925 0)
(-0.0882689 0.0029518 0)
(-0.0885302 0.000995439 0)
(-0.0885452 -0.000969926 0)
(-0.0883136 -0.00293425 0)
(-0.0878359 -0.00488739 0)
(-0.0871141 -0.00681909 0)
(-0.0861513 -0.00871901 0)
(-0.0849517 -0.0105768 0)
(-0.0835207 -0.0123819 0)