/*--------------------------------*- C++ -*----------------------------------*\
| =========                 |                                                 |
| \\      /  F ield         | OpenFOAM: The Open Source CFD Toolbox           |
|  \\    /   O peration     | Version:  4.1                                   |
|   \\  /    A nd           | Web:      www.OpenFOAM.org                      |
|    \\/     M anipulation  |                                                 |
\*---------------------------------------------------------------------------*/
FoamFile
{
    version     2.0;
    format      ascii;
    class       volVectorField;
    location    "0.15";
    object      U;
}
// * * * * * * * * * * * * * * * * * * * * * * * * * * * * * * * * * * * * * //

dimensions      [0 1 -1 0 0 0 0];

internalField   nonuniform List<vector> 
100
(
(-0.00148389 0.000804569 0)
(-0.00434474 0.00111486 0)
(-0.0119959 0.00143115 0)
(-0.0161898 0.000589703 0)
(-0.0207393 0.000310432 0)
(-0.0219264 -0.00109041 0)
(-0.0199989 -0.00173031 0)
(-0.0160066 -0.00321834 0)
(-0.00667255 -0.00313111 0)
(-0.00237599 -0.00255138 0)
(-0.00300082 0.00507838 0)
(-0.0108238 0.00932613 0)
(-0.0255375 0.0107178 0)
(-0.034383 0.00793135 0)
(-0.0425546 0.00583808 0)
(-0.0446127 5.60982e-05 0)
(-0.0408756 -0.00382974 0)
(-0.032527 -0.0103894 0)
(-0.0151311 -0.0103631 0)
(-0.00422261 -0.00648081 0)
(-0.00382078 0.0146272 0)
(-0.0142995 0.0234307 0)
(-0.0326008 0.0252301 0)
(-0.0440557 0.0171611 0)
(-0.054783 0.0108438 0)
(-0.0582287 -0.00332 0)
(-0.0549849 -0.0136259 0)
(-0.0449707 -0.0295449 0)
(-0.0229025 -0.0315515 0)
(-0.00645496 -0.0221705 0)
(-0.00605808 0.0230282 0)
(-0.0199538 0.0378256 0)
(-0.0431909 0.0406779 0)
(-0.0581378 0.0297873 0)
(-0.0721413 0.0205579 0)
(-0.0783973 6.48341e-05 0)
(-0.0770663 -0.0163572 0)
(-0.0663354 -0.0424737 0)
(-0.0380316 -0.0482674 0)
(-0.01125 -0.035351 0)
(-0.00714221 0.0408657 0)
(-0.0231644 0.0602288 0)
(-0.0498939 0.0639317 0)
(-0.067926 0.0453664 0)
(-0.086403 0.0315622 0)
(-0.0973255 0.000597592 0)
(-0.10172 -0.0255324 0)
(-0.0934291 -0.0698529 0)
(-0.0609047 -0.0872091 0)
(-0.0189698 -0.0724337 0)
(-0.0139867 0.0527494 0)
(-0.0364146 0.0798959 0)
(-0.068995 0.0856009 0)
(-0.0916624 0.0656437 0)
(-0.113771 0.0507779 0)
(-0.129961 0.0150553 0)
(-0.141587 -0.0188912 0)
(-0.137049 -0.0831101 0)
(-0.100894 -0.121374 0)
(-0.0339044 -0.114282 0)
(-0.0154828 0.092185 0)
(-0.0383859 0.114483 0)
(-0.0715321 0.120406 0)
(-0.0935662 0.0887118 0)
(-0.116287 0.0706789 0)
(-0.132536 0.0264388 0)
(-0.151519 -0.0181332 0)
(-0.1522 -0.113069 0)
(-0.126634 -0.191707 0)
(-0.0475569 -0.210677 0)
(-0.040091 0.104851 0)
(-0.0719048 0.134431 0)
(-0.0867892 0.141079 0)
(-0.0944474 0.109224 0)
(-0.0975879 0.091264 0)
(-0.0976042 0.0496106 0)
(-0.112967 0.0035279 0)
(-0.112389 -0.107275 0)
(-0.115557 -0.222085 0)
(-0.0520408 -0.286772 0)
(-0.0361685 0.207236 0)
(-0.0257435 0.159371 0)
(0.00614644 0.146388 0)
(0.045004 0.0973462 0)
(0.074787 0.0759243 0)
(0.114315 0.0388743 0)
(0.118574 -0.00144705 0)
(0.13258 -0.113567 0)
(0.0632005 -0.251716 0)
(0.0153565 -0.386305 0)
(0.147552 0.161063 0)
(0.236375 0.0894098 0)
(0.384384 0.0721927 0)
(0.459657 0.0399456 0)
(0.517687 0.0254336 0)
(0.563304 0.00643504 0)
(0.561165 -0.00776398 0)
(0.557472 -0.0461152 0)
(0.400497 -0.0906349 0)
(0.217552 -0.194311 0)
)
;

boundaryField
{
    movingWall
    {
        type            fixedValue;
        value           uniform (1 0 0);
    }
    fixedWalls
    {
        type            noSlip;
    }
    frontAndBack
    {
        type            empty;
    }
}


// ************************************************************************* //
