/*--------------------------------*- C++ -*----------------------------------*\
| =========                 |                                                 |
| \\      /  F ield         | OpenFOAM: The Open Source CFD Toolbox           |
|  \\    /   O peration     | Version:  4.1                                   |
|   \\  /    A nd           | Web:      www.OpenFOAM.org                      |
|    \\/     M anipulation  |                                                 |
\*---------------------------------------------------------------------------*/
FoamFile
{
    version     2.0;
    format      ascii;
    class       volVectorField;
    location    "4.75";
    object      U;
}
// * * * * * * * * * * * * * * * * * * * * * * * * * * * * * * * * * * * * * //

dimensions      [0 1 -1 0 0 0 0];

internalField   nonuniform List<vector> 
400
(
(0.000159683 -0.00015685 0)
(-0.000143169 9.43323e-05 0)
(-0.00145978 0.000310247 0)
(-0.00342209 0.000466862 0)
(-0.00582366 0.000540992 0)
(-0.00836995 0.000563096 0)
(-0.0108684 0.000538445 0)
(-0.0131134 0.000471791 0)
(-0.0149149 0.000358437 0)
(-0.0160738 0.000196468 0)
(-0.0164107 -9.85464e-06 0)
(-0.015799 -0.000243434 0)
(-0.0142094 -0.000473624 0)
(-0.0117577 -0.000657269 0)
(-0.00871404 -0.000750708 0)
(-0.00551078 -0.000715933 0)
(-0.00262899 -0.000550238 0)
(-0.000579447 -0.00026581 0)
(0.000404608 3.33572e-05 0)
(0.000271332 0.000257018 0)
(-9.42546e-05 0.000134461 0)
(-0.00186671 0.00177637 0)
(-0.00576361 0.00327029 0)
(-0.0109861 0.00432624 0)
(-0.0170969 0.00485638 0)
(-0.0234664 0.00494515 0)
(-0.0296237 0.00463188 0)
(-0.0350736 0.0039378 0)
(-0.0393571 0.00286129 0)
(-0.0420247 0.00142177 0)
(-0.0426972 -0.00031015 0)
(-0.041132 -0.00218505 0)
(-0.0373067 -0.00397175 0)
(-0.0315014 -0.00537833 0)
(-0.0243114 -0.00611428 0)
(-0.0166528 -0.00595957 0)
(-0.0095468 -0.00488473 0)
(-0.00407027 -0.00305587 0)
(-0.000746984 -0.00103848 0)
(0.000132186 0.000436218 0)
(-0.000372241 0.00154929 0)
(-0.00381457 0.0057708 0)
(-0.0102681 0.0092839 0)
(-0.0184435 0.0116788 0)
(-0.0277275 0.0128461 0)
(-0.0372579 0.012919 0)
(-0.0463771 0.0119743 0)
(-0.0543907 0.0100564 0)
(-0.0606561 0.00718739 0)
(-0.0645556 0.00344698 0)
(-0.0655766 -0.000963159 0)
(-0.0633924 -0.00566949 0)
(-0.0579652 -0.0101239 0)
(-0.0496492 -0.0136545 0)
(-0.039215 -0.0155941 0)
(-0.0278799 -0.015442 0)
(-0.0170392 -0.013106 0)
(-0.008242 -0.00896933 0)
(-0.00232245 -0.00418381 0)
(-4.3774e-05 -0.000216084 0)
(-0.000640404 0.00394873 0)
(-0.00570784 0.0117836 0)
(-0.0146057 0.0178221 0)
(-0.0255065 0.0217603 0)
(-0.0376331 0.023583 0)
(-0.0499405 0.0235075 0)
(-0.0616534 0.0216592 0)
(-0.0719486 0.0181081 0)
(-0.0800629 0.0129058 0)
(-0.085256 0.00620436 0)
(-0.0868978 -0.00164261 0)
(-0.0845534 -0.0100053 0)
(-0.0780979 -0.0179691 0)
(-0.0678491 -0.0244076 0)
(-0.0546246 -0.0281743 0)
(-0.0398402 -0.0283689 0)
(-0.0252243 -0.0247326 0)
(-0.0128702 -0.0178198 0)
(-0.00405019 -0.00939099 0)
(-0.000215753 -0.00168371 0)
(-0.000869888 0.00731017 0)
(-0.00742263 0.019801 0)
(-0.0185917 0.0288692 0)
(-0.0320166 0.0345363 0)
(-0.046765 0.0370195 0)
(-0.0616417 0.0366772 0)
(-0.075802 0.0337052 0)
(-0.0883462 0.0281998 0)
(-0.0984336 0.0202348 0)
(-0.105223 0.0100236 0)
(-0.107957 -0.00193957 0)
(-0.10604 -0.0147714 0)
(-0.0991655 -0.0271694 0)
(-0.0874883 -0.0374873 0)
(-0.0717399 -0.0439691 0)
(-0.0534462 -0.0451272 0)
(-0.0346704 -0.0403314 0)
(-0.0182041 -0.0301733 0)
(-0.00596837 -0.0170317 0)
(-0.000372544 -0.00404765 0)
(-0.00107173 0.0114983 0)
(-0.00894822 0.0295844 0)
(-0.0221677 0.0421413 0)
(-0.0378844 0.049706 0)
(-0.0550313 0.0528689 0)
(-0.0722987 0.0522007 0)
(-0.0888138 0.047997 0)
(-0.103646 0.0403772 0)
(-0.115916 0.0294146 0)
(-0.124702 0.0153437 0)
(-0.129108 -0.00125034 0)
(-0.128332 -0.0192794 0)
(-0.121792 -0.0370752 0)
(-0.109339 -0.0524307 0)
(-0.0914538 -0.0628364 0)
(-0.0696252 -0.0659541 0)
(-0.046202 -0.0604419 0)
(-0.0248272 -0.0466545 0)
(-0.00835446 -0.0275502 0)
(-0.000563284 -0.00742245 0)
(-0.0012421 0.0164227 0)
(-0.0102553 0.0409501 0)
(-0.0252521 0.0574223 0)
(-0.0429673 0.0670588 0)
(-0.0622253 0.0709576 0)
(-0.08164 0.0699756 0)
(-0.100349 0.0645418 0)
(-0.117438 0.0547948 0)
(-0.132029 0.0407746 0)
(-0.143156 0.0226778 0)
(-0.149802 0.00109904 0)
(-0.150939 -0.0227595 0)
(-0.145645 -0.046937 0)
(-0.133339 -0.0686742 0)
(-0.114043 -0.0845832 0)
(-0.0889685 -0.0911603 0)
(-0.0605629 -0.0858495 0)
(-0.0333796 -0.0682716 0)
(-0.0115381 -0.0417741 0)
(-0.000836291 -0.0121311 0)
(-0.00137921 0.0219528 0)
(-0.0113115 0.0536281 0)
(-0.0277472 0.0743766 0)
(-0.0470704 0.0862389 0)
(-0.0680214 0.0909471 0)
(-0.0891761 0.0897197 0)
(-0.109721 0.0831594 0)
(-0.128805 0.0714231 0)
(-0.145611 0.0544853 0)
(-0.159185 0.0324364 0)
(-0.168448 0.00577891 0)
(-0.172188 -0.0243026 0)
(-0.169146 -0.0556952 0)
(-0.158216 -0.0851885 0)
(-0.138758 -0.10848 0)
(-0.111355 -0.120605 0)
(-0.0781588 -0.117145 0)
(-0.0444498 -0.0961524 0)
(-0.0158974 -0.0608073 0)
(-0.00125774 -0.0186712 0)
(-0.00148085 0.0279569 0)
(-0.0120863 0.0673239 0)
(-0.0295528 0.0926123 0)
(-0.0499752 0.106793 0)
(-0.0720236 0.112356 0)
(-0.0942733 0.11096 0)
(-0.115994 0.10343 0)
(-0.136455 0.0899538 0)
(-0.154962 0.0704209 0)
(-0.170669 0.0447571 0)
(-0.182536 0.0132706 0)
(-0.189285 -0.0230291 0)
(-0.189406 -0.062086 0)
(-0.181285 -0.100466 0)
(-0.163473 -0.133088 0)
(-0.135529 -0.153392 0)
(-0.0986957 -0.154394 0)
(-0.0583858 -0.131352 0)
(-0.0218257 -0.0860174 0)
(-0.00191115 -0.0277701 0)
(-0.00155255 0.0342757 0)
(-0.0125886 0.0816735 0)
(-0.0306311 0.111618 0)
(-0.0515269 0.128087 0)
(-0.0738779 0.134459 0)
(-0.0962988 0.13291 0)
(-0.118177 0.124558 0)
(-0.138959 0.109648 0)
(-0.158154 0.0879914 0)
(-0.175127 0.0593198 0)
(-0.189025 0.0236675 0)
(-0.198675 -0.0182857 0)
(-0.20251 -0.0647947 0)
(-0.198555 -0.112559 0)
(-0.184565 -0.156104 0)
(-0.158766 -0.187451 0)
(-0.120777 -0.196557 0)
(-0.0750341 -0.174353 0)
(-0.0296989 -0.118829 0)
(-0.00291417 -0.0403908 0)
(-0.00162481 0.0408146 0)
(-0.0129141 0.0963624 0)
(-0.0310761 0.130869 0)
(-0.0517297 0.149378 0)
(-0.0734001 0.156326 0)
(-0.0947982 0.15449 0)
(-0.115468 0.145366 0)
(-0.135099 0.129305 0)
(-0.153479 0.106076 0)
(-0.170292 0.0752247 0)
(-0.185021 0.0364781 0)
(-0.196798 -0.00992938 0)
(-0.204259 -0.0628107 0)
(-0.205348 -0.119437 0)
(-0.197268 -0.174556 0)
(-0.176864 -0.219414 0)
(-0.141571 -0.240962 0)
(-0.0933601 -0.22441 0)
(-0.0397693 -0.160373 0)
(-0.0044317 -0.0577509 0)
(-0.00175806 0.0474903 0)
(-0.0133174 0.111044 0)
(-0.031235 0.149733 0)
(-0.0508991 0.169734 0)
(-0.0707517 0.176766 0)
(-0.0897071 0.1743 0)
(-0.107522 0.164306 0)
(-0.124213 0.147296 0)
(-0.139908 0.123057 0)
(-0.154699 0.0909929 0)
(-0.168517 0.0505423 0)
(-0.180974 0.00145127 0)
(-0.191164 -0.0558221 0)
(-0.197316 -0.119527 0)
(-0.196543 -0.185372 0)
(-0.184636 -0.244935 0)
(-0.156792 -0.283068 0)
(-0.111053 -0.278765 0)
(-0.0519443 -0.210842 0)
(-0.00668443 -0.0812586 0)
(-0.00210469 0.0546396 0)
(-0.0142803 0.125814 0)
(-0.03173 0.167868 0)
(-0.0496526 0.188306 0)
(-0.0664172 0.194534 0)
(-0.081342 0.19079 0)
(-0.0944802 0.179616 0)
(-0.106273 0.161726 0)
(-0.117239 0.136978 0)
(-0.127928 0.104692 0)
(-0.13877 0.0640803 0)
(-0.149946 0.0144377 0)
(-0.161201 -0.0445445 0)
(-0.171385 -0.112338 0)
(-0.178117 -0.186271 0)
(-0.176821 -0.259589 0)
(-0.161124 -0.316894 0)
(-0.124287 -0.332177 0)
(-0.0653867 -0.268662 0)
(-0.00993132 -0.112379 0)
(-0.00290509 0.0625034 0)
(-0.0167181 0.140515 0)
(-0.0337136 0.184573 0)
(-0.0491238 0.203845 0)
(-0.0613049 0.208009 0)
(-0.070384 0.202106 0)
(-0.0768363 0.189314 0)
(-0.0816661 0.170535 0)
(-0.0858065 0.145729 0)
(-0.0902677 0.114176 0)
(-0.0959608 0.0749397 0)
(-0.103632 0.0269717 0)
(-0.113752 -0.0306939 0)
(-0.126005 -0.0987446 0)
(-0.139081 -0.176463 0)
(-0.148897 -0.259967 0)
(-0.148917 -0.336045 0)
(-0.127803 -0.377004 0)
(-0.077969 -0.329496 0)
(-0.0143859 -0.152113 0)
(-0.00469653 0.0732964 0)
(-0.0218375 0.156744 0)
(-0.0382741 0.200257 0)
(-0.0500616 0.215581 0)
(-0.0556881 0.215706 0)
(-0.0567451 0.206378 0)
(-0.0542682 0.191355 0)
(-0.0499791 0.171608 0)
(-0.0452113 0.147141 0)
(-0.0413994 0.117201 0)
(-0.0398589 0.080762 0)
(-0.0418193 0.0365656 0)
(-0.0484322 -0.0167957 0)
(-0.0602585 -0.0809601 0)
(-0.0774372 -0.157058 0)
(-0.0971483 -0.244703 0)
(-0.114556 -0.335239 0)
(-0.115065 -0.404326 0)
(-0.08555 -0.385822 0)
(-0.0200001 -0.200535 0)
(-0.00831175 0.0871188 0)
(-0.0321173 0.173351 0)
(-0.0471286 0.21263 0)
(-0.052952 0.220591 0)
(-0.0485562 0.214598 0)
(-0.0383031 0.200782 0)
(-0.0239103 0.183205 0)
(-0.00796341 0.16268 0)
(0.00790073 0.13913 0)
(0.0219295 0.111745 0)
(0.0325438 0.0794542 0)
(0.0381761 0.0409331 0)
(0.0371362 -0.00540812 0)
(0.0281111 -0.0617072 0)
(0.00943966 -0.130406 0)
(-0.0177448 -0.214346 0)
(-0.052132 -0.310927 0)
(-0.0781816 -0.404702 0)
(-0.0812781 -0.425988 0)
(-0.0258821 -0.254401 0)
(-0.014848 0.114206 0)
(-0.0470024 0.19562 0)
(-0.0557863 0.222605 0)
(-0.0499366 0.216823 0)
(-0.0297336 0.201543 0)
(-0.00367706 0.182073 0)
(0.0260448 0.161889 0)
(0.0560788 0.141156 0)
(0.0847417 0.119431 0)
(0.11019 0.0957639 0)
(0.130801 0.0690449 0)
(0.144878 0.0379982 0)
(0.150428 0.00107316 0)
(0.145617 -0.0438856 0)
(0.127531 -0.0998941 0)
(0.0955827 -0.171837 0)
(0.0464117 -0.263116 0)
(-0.00637985 -0.3713 0)
(-0.0535945 -0.436625 0)
(-0.0287548 -0.308141 0)
(-0.0256672 0.142399 0)
(-0.0664391 0.208714 0)
(-0.0503912 0.214714 0)
(-0.0188597 0.192273 0)
(0.02782 0.168133 0)
(0.0758261 0.144973 0)
(0.124018 0.124339 0)
(0.16917 0.105497 0)
(0.210279 0.0874875 0)
(0.245973 0.0692598 0)
(0.275007 0.0497449 0)
(0.295899 0.0278605 0)
(0.306713 0.00231531 0)
(0.305376 -0.0285933 0)
(0.288299 -0.0676285 0)
(0.253385 -0.119736 0)
(0.192857 -0.192205 0)
(0.115769 -0.295533 0)
(0.0161848 -0.394452 0)
(-0.017461 -0.338155 0)
(-0.0186105 0.215167 0)
(-0.0195888 0.215604 0)
(0.0562962 0.181005 0)
(0.127289 0.139066 0)
(0.202714 0.108833 0)
(0.269371 0.0865901 0)
(0.329582 0.0696458 0)
(0.382123 0.0561769 0)
(0.427442 0.0446532 0)
(0.465296 0.034021 0)
(0.495246 0.0233944 0)
(0.516417 0.0120315 0)
(0.527393 -0.0009076 0)
(0.526316 -0.0163933 0)
(0.509926 -0.0363979 0)
(0.475186 -0.0643021 0)
(0.412333 -0.108282 0)
(0.322352 -0.186584 0)
(0.172245 -0.296429 0)
(0.0427719 -0.334903 0)
(0.211483 0.129767 0)
(0.297757 0.101121 0)
(0.451709 0.0674676 0)
(0.543488 0.0441496 0)
(0.617593 0.0288325 0)
(0.672692 0.0195892 0)
(0.715865 0.0136429 0)
(0.749888 0.00968932 0)
(0.77681 0.00681372 0)
(0.797649 0.00450236 0)
(0.812809 0.00241173 0)
(0.822178 0.000316244 0)
(0.825184 -0.00200648 0)
(0.820749 -0.00473973 0)
(0.806934 -0.00842267 0)
(0.78071 -0.0136429 0)
(0.734021 -0.0229005 0)
(0.658454 -0.0407657 0)
(0.498078 -0.0744145 0)
(0.288332 -0.136254 0)
)
;

boundaryField
{
    movingWall
    {
        type            fixedValue;
        value           uniform (1 0 0);
    }
    fixedWalls
    {
        type            noSlip;
    }
    frontAndBack
    {
        type            empty;
    }
}


// ************************************************************************* //
