/*--------------------------------*- C++ -*----------------------------------*\
| =========                 |                                                 |
| \\      /  F ield         | OpenFOAM: The Open Source CFD Toolbox           |
|  \\    /   O peration     | Version:  4.1                                   |
|   \\  /    A nd           | Web:      www.OpenFOAM.org                      |
|    \\/     M anipulation  |                                                 |
\*---------------------------------------------------------------------------*/
FoamFile
{
    version     2.0;
    format      ascii;
    class       volVectorField;
    location    "0.0418";
    object      U;
}
// * * * * * * * * * * * * * * * * * * * * * * * * * * * * * * * * * * * * * //

dimensions      [0 1 -1 0 0 0 0];

internalField   nonuniform List<vector> 
441
(
(0.00331501 -0.00456422 0)
(0.00837796 -0.00260837 0)
(-0.000652121 -2.19164e-165 0)
(0.00166514 -2.68754e-266 0)
(-0.00900619 -0.00666116 0)
(-0.00166514 -2.66318e-232 0)
(-1.08176e-202 -4.371e-203 0)
(-1.09258e-203 -5.53769e-228 0)
(-1.4448e-212 -2.32971e-213 0)
(-0.00510489 7.70724e-266 0)
(-0.0611847 0.0204218 0)
(-0.07754 0.0109381 0)
(-0.0885485 0.00525915 0)
(-0.0799657 0.000827317 0)
(-0.0686653 -0.000873095 0)
(-0.0493161 -0.00218437 0)
(-0.0319977 -0.00174282 0)
(-0.0149709 -0.00164871 0)
(-0.0030266 9.97467e-05 0)
(0.00128929 0.000711946 0)
(0.00374543 0.00235742 0)
(0.00313422 -0.00692728 0)
(-0.00253234 0.00655245 0)
(-0.0272652 0.00766782 0)
(-0.0556468 0.0106649 0)
(-0.0966318 0.0092402 0)
(-0.13325 -0.00437061 0)
(-0.166467 -0.000465052 0)
(-0.197148 0.00122381 0)
(-0.223578 0.0106339 0)
(-0.250296 0.0542238 0)
(-0.268649 0.0502627 0)
(-0.263806 0.01672 0)
(-0.253912 -0.00325638 0)
(-0.223192 -0.0213597 0)
(-0.187405 -0.0298188 0)
(-0.14008 -0.0355936 0)
(-0.0959422 -0.0323741 0)
(-0.0537327 -0.0284819 0)
(-0.0224129 -0.0159034 0)
(-0.00558933 -0.00822567 0)
(0.0038181 0.00288764 0)
(0.00639809 -0.00572318 0)
(-0.00591882 0.0274052 0)
(-0.0503221 0.0517404 0)
(-0.107814 0.0672333 0)
(-0.175575 0.0699223 0)
(-0.244304 0.0662446 0)
(-0.315613 0.0616191 0)
(-0.370357 0.0552042 0)
(-0.423543 0.0510819 0)
(-0.44695 0.0489812 0)
(-0.440699 0.0347712 0)
(-0.425666 -0.0027517 0)
(-0.398684 -0.034727 0)
(-0.350887 -0.0655314 0)
(-0.294337 -0.0830949 0)
(-0.223437 -0.0939102 0)
(-0.156133 -0.0869906 0)
(-0.0908563 -0.0756407 0)
(-0.0417655 -0.046993 0)
(-0.0116648 -0.0259093 0)
(0.0051014 0.00105672 0)
(0.00588874 -0.00761645 0)
(-0.0133645 0.0648564 0)
(-0.0833913 0.109646 0)
(-0.163434 0.137993 0)
(-0.25548 0.146055 0)
(-0.345605 0.138113 0)
(-0.431725 0.126936 0)
(-0.503442 0.109869 0)
(-0.560775 0.0891279 0)
(-0.592434 0.0689966 0)
(-0.596346 0.0287363 0)
(-0.57655 -0.0263129 0)
(-0.539573 -0.0781415 0)
(-0.476053 -0.126743 0)
(-0.400648 -0.157054 0)
(-0.306585 -0.175147 0)
(-0.216436 -0.164401 0)
(-0.127342 -0.144386 0)
(-0.060211 -0.0942946 0)
(-0.0163304 -0.0564192 0)
(0.00697351 -0.00331816 0)
(6.14885e-165 0.00147219 0)
(-0.0194298 0.116274 0)
(-0.11739 0.201079 0)
(-0.214855 0.238075 0)
(-0.328882 0.25117 0)
(-0.436858 0.240927 0)
(-0.541744 0.218422 0)
(-0.62749 0.183388 0)
(-0.697063 0.139553 0)
(-0.735746 0.0851783 0)
(-0.745213 0.0193038 0)
(-0.726127 -0.0592927 0)
(-0.683171 -0.134486 0)
(-0.607549 -0.204731 0)
(-0.514987 -0.251498 0)
(-0.396484 -0.278857 0)
(-0.281979 -0.264798 0)
(-0.16393 -0.232841 0)
(-0.0774329 -0.15638 0)
(-0.0156896 -0.0938702 0)
(0.013448 -0.00745993 0)
(-5.03623e-266 0.00501373 0)
(-0.0756409 0.186533 0)
(-0.161584 0.30336 0)
(-0.276617 0.351182 0)
(-0.398786 0.368012 0)
(-0.521837 0.352004 0)
(-0.637978 0.318149 0)
(-0.737964 0.265438 0)
(-0.818733 0.198122 0)
(-0.870719 0.11643 0)
(-0.893645 0.0193652 0)
(-0.881052 -0.0892885 0)
(-0.838915 -0.196472 0)
(-0.754717 -0.296352 0)
(-0.646802 -0.367624 0)
(-0.502339 -0.410328 0)
(-0.359711 -0.395909 0)
(-0.20729 -0.3518 0)
(-0.0968433 -0.240711 0)
(-0.0132739 -0.150357 0)
(0.0159664 -0.00447211 0)
(-0.0200549 0.0802098 0)
(-0.10424 0.274565 0)
(-0.202621 0.402496 0)
(-0.327842 0.473672 0)
(-0.464517 0.495782 0)
(-0.601569 0.478908 0)
(-0.733522 0.433958 0)
(-0.849317 0.363404 0)
(-0.946919 0.272194 0)
(-1.01555 0.1599 0)
(-1.05479 0.0301224 0)
(-1.05428 -0.114281 0)
(-1.01836 -0.259856 0)
(-0.930109 -0.397593 0)
(-0.809399 -0.502402 0)
(-0.636518 -0.56746 0)
(-0.462505 -0.557609 0)
(-0.263623 -0.497791 0)
(-0.127662 -0.347351 0)
(-0.000892981 -0.208354 0)
(5.64462e-266 -0.00399161 0)
(-0.0144883 0.131607 0)
(-0.0982207 0.370186 0)
(-0.22073 0.527615 0)
(-0.363343 0.613903 0)
(-0.517032 0.642126 0)
(-0.670572 0.621419 0)
(-0.818683 0.566322 0)
(-0.95309 0.478822 0)
(-1.07033 0.364797 0)
(-1.16117 0.223814 0)
(-1.22308 0.058467 0)
(-1.2421 -0.126713 0)
(-1.2203 -0.320189 0)
(-1.13494 -0.507283 0)
(-1.00568 -0.660488 0)
(-0.805367 -0.760825 0)
(-0.594504 -0.767112 0)
(-0.34318 -0.692317 0)
(-0.167116 -0.499042 0)
(-0.00221799 -0.286968 0)
(2.20475e-24 -1.33062e-24 0)
(-0.0127008 0.189772 0)
(-0.10181 0.479094 0)
(-0.240493 0.666277 0)
(-0.397884 0.768366 0)
(-0.568078 0.801981 0)
(-0.737427 0.779231 0)
(-0.902854 0.715824 0)
(-1.05691 0.614129 0)
(-1.19649 0.480161 0)
(-1.31298 0.312122 0)
(-1.40214 0.111621 0)
(-1.44775 -0.117538 0)
(-1.44819 -0.36569 0)
(-1.37474 -0.613297 0)
(-1.24454 -0.829849 0)
(-1.02022 -0.981224 0)
(-0.771135 -1.01622 0)
(-0.456217 -0.929593 0)
(-0.228254 -0.681351 0)
(-0.00409573 -0.382182 0)
(9.08617e-77 -5.51187e-25 0)
(-0.0112171 0.246844 0)
(-0.102274 0.599647 0)
(-0.25321 0.824592 0)
(-0.422682 0.942204 0)
(-0.606642 0.982313 0)
(-0.790008 0.956343 0)
(-0.970581 0.886229 0)
(-1.14342 0.772196 0)
(-1.30486 0.621131 0)
(-1.4486 0.428835 0)
(-1.56814 0.193481 0)
(-1.64639 -0.0818263 0)
(-1.67751 -0.392739 0)
(-1.62701 -0.713397 0)
(-1.50692 -1.0143 0)
(-1.26809 -1.23951 0)
(-0.982878 -1.32957 0)
(-0.598487 -1.24428 0)
(-0.304453 -0.945996 0)
(-0.0055409 -0.528883 0)
(2.54323e-164 -2.27154e-77 0)
(-0.011843 0.300133 0)
(-0.108396 0.719422 0)
(-0.271234 0.984626 0)
(-0.451182 1.11974 0)
(-0.645437 1.16785 0)
(-0.838776 1.14137 0)
(-1.02935 1.06834 0)
(-1.21599 0.947103 0)
(-1.39404 0.785009 0)
(-1.56149 0.574608 0)
(-1.70916 0.309907 0)
(-1.82245 -0.00863322 0)
(-1.89008 -0.383374 0)
(-1.87508 -0.784802 0)
(-1.78078 -1.18576 0)
(-1.54595 -1.50856 0)
(-1.23887 -1.68109 0)
(-0.791168 -1.61501 0)
(-0.423973 -1.26354 0)
(-0.0690145 -0.698033 0)
(1.62169e-265 0.0120791 0)
(-0.0132946 0.368119 0)
(-0.11313 0.86122 0)
(-0.283854 1.169 0)
(-0.468964 1.31722 0)
(-0.666569 1.3712 0)
(-0.862286 1.34032 0)
(-1.05374 1.26416 0)
(-1.2446 1.13646 0)
(-1.42869 0.966735 0)
(-1.60993 0.743146 0)
(-1.77711 0.454263 0)
(-1.92079 0.0978608 0)
(-2.02592 -0.340022 0)
(-2.05597 -0.825121 0)
(-2.00511 -1.34291 0)
(-1.79964 -1.78775 0)
(-1.4929 -2.08362 0)
(-0.991945 -2.07224 0)
(-0.530431 -1.66284 0)
(-0.0692451 -0.970942 0)
(0.0483165 -0.065121 0)
(-0.0176645 0.422268 0)
(-0.126338 0.987072 0)
(-0.309069 1.33761 0)
(-0.497934 1.4992 0)
(-0.691194 1.55939 0)
(-0.879155 1.52596 0)
(-1.05631 1.44964 0)
(-1.23548 1.32041 0)
(-1.40632 1.14989 0)
(-1.58326 0.922264 0)
(-1.7511 0.621118 0)
(-1.9126 0.240225 0)
(-2.04686 -0.24617 0)
(-2.12844 -0.80526 0)
(-2.13745 -1.43759 0)
(-1.99515 -2.0228 0)
(-1.7322 -2.48294 0)
(-1.19687 -2.58562 0)
(-0.67571 -2.17963 0)
(0.0356567 -1.283 0)
(2.2409e-231 -0.0120791 0)
(-0.023415 0.51501 0)
(-0.138819 1.1557 0)
(-0.327533 1.54443 0)
(-0.511292 1.70042 0)
(-0.687903 1.75549 0)
(-0.853681 1.70567 0)
(-0.999137 1.62226 0)
(-1.14666 1.4863 0)
(-1.28142 1.31494 0)
(-1.42897 1.0875 0)
(-1.57161 0.782992 0)
(-1.72645 0.393058 0)
(-1.87177 -0.125014 0)
(-1.99799 -0.735592 0)
(-2.07965 -1.4763 0)
(-2.04045 -2.19778 0)
(-1.88422 -2.88201 0)
(-1.41454 -3.14641 0)
(-0.876121 -2.89046 0)
(-0.0038269 -1.68146 0)
(5.54958e-202 4.45403e-184 0)
(-0.0404067 0.577351 0)
(-0.179015 1.28509 0)
(-0.382646 1.7061 0)
(-0.558861 1.85397 0)
(-0.700561 1.90001 0)
(-0.824728 1.83361 0)
(-0.9099 1.74214 0)
(-0.998777 1.60118 0)
(-1.06518 1.43234 0)
(-1.15323 1.21272 0)
(-1.23633 0.919361 0)
(-1.35616 0.542287 0)
(-1.48098 0.0278834 0)
(-1.641 -0.593983 0)
(-1.78567 -1.38804 0)
(-1.89428 -2.21568 0)
(-1.89093 -3.0941 0)
(-1.60854 -3.60296 0)
(-1.12527 -3.56839 0)
(-0.0102947 -2.18792 0)
(1.78161e-183 7.73066e-185 0)
(-0.0596455 0.742225 0)
(-0.219082 1.50223 0)
(-0.422869 1.93352 0)
(-0.573809 2.01961 0)
(-0.659759 2.02832 0)
(-0.720006 1.91557 0)
(-0.722172 1.80036 0)
(-0.727499 1.64212 0)
(-0.699979 1.47087 0)
(-0.699274 1.25957 0)
(-0.692191 0.985341 0)
(-0.739919 0.639452 0)
(-0.808252 0.157529 0)
(-0.958886 -0.428033 0)
(-1.14445 -1.22666 0)
(-1.3875 -2.08943 0)
(-1.60633 -3.17351 0)
(-1.63526 -3.91971 0)
(-1.45093 -4.50743 0)
(-0.455775 -2.85293 0)
(4.33018e-254 -4.45403e-184 0)
(-0.125088 0.841812 0)
(-0.351758 1.6351 0)
(-0.549269 2.05538 0)
(-0.655273 2.08101 0)
(-0.628632 2.04526 0)
(-0.583262 1.89098 0)
(-0.451952 1.75045 0)
(-0.338055 1.57785 0)
(-0.181315 1.40543 0)
(-0.066652 1.20704 0)
(0.0576845 0.961771 0)
(0.101367 0.66381 0)
(0.122372 0.250029 0)
(-0.00277388 -0.248767 0)
(-0.175555 -0.951627 0)
(-0.581562 -1.7427 0)
(-0.971177 -2.82059 0)
(-1.62386 -3.75777 0)
(-1.73101 -4.66105 0)
(-2.05238 -3.71485 0)
(-2.5145e-264 -0.21172 0)
(-0.179663 1.24017 0)
(-0.43869 1.93064 0)
(-0.56259 2.25917 0)
(-0.561857 2.09925 0)
(-0.377019 1.97015 0)
(-0.184675 1.73867 0)
(0.103643 1.56183 0)
(0.357467 1.3717 0)
(0.652297 1.20154 0)
(0.889797 1.02223 0)
(1.13392 0.816472 0)
(1.28193 0.579363 0)
(1.40327 0.25794 0)
(1.35494 -0.120831 0)
(1.23994 -0.658484 0)
(0.838805 -1.277 0)
(0.35064 -2.16098 0)
(-0.517724 -3.11584 0)
(-1.18193 -4.16636 0)
(-1.85887 -4.44126 0)
(-0.846879 -2.28825 0)
(-0.399291 1.42561 0)
(-0.729749 1.98928 0)
(-0.542962 2.17266 0)
(-0.292496 1.87874 0)
(0.223828 1.66929 0)
(0.643142 1.40278 0)
(1.15094 1.21056 0)
(1.56298 1.02742 0)
(1.99826 0.875038 0)
(2.34174 0.728226 0)
(2.68156 0.571625 0)
(2.90121 0.402748 0)
(3.09663 0.18005 0)
(3.09404 -0.0699021 0)
(3.04739 -0.431625 0)
(2.6578 -0.830631 0)
(2.22108 -1.46318 0)
(1.23816 -2.19376 0)
(0.373161 -3.32198 0)
(-0.742244 -3.97336 0)
(-0.696387 -2.9574 0)
(-0.254392 2.43103 0)
(-0.0939529 2.06898 0)
(0.691946 1.87265 0)
(1.32715 1.3251 0)
(2.12079 1.05543 0)
(2.71847 0.805468 0)
(3.3384 0.648761 0)
(3.81718 0.52072 0)
(4.28605 0.42348 0)
(4.64395 0.338642 0)
(4.98406 0.255123 0)
(5.20148 0.169198 0)
(5.39394 0.0613363 0)
(5.40197 -0.0590303 0)
(5.37877 -0.231982 0)
(5.04509 -0.428667 0)
(4.68426 -0.771332 0)
(3.77716 -1.23469 0)
(2.83195 -2.25173 0)
(1.07665 -3.32603 0)
(-0.0435289 -3.80092 0)
(1.66935 1.67164 0)
(2.71257 0.977193 0)
(4.55849 0.749994 0)
(5.39651 0.423532 0)
(6.25616 0.284292 0)
(6.75321 0.174676 0)
(7.21625 0.117481 0)
(7.52261 0.0775128 0)
(7.80521 0.0522276 0)
(7.99682 0.0333182 0)
(8.17387 0.0169169 0)
(8.26565 0.00143851 0)
(8.34712 -0.01834 0)
(8.30439 -0.0387477 0)
(8.2603 -0.0746543 0)
(7.9905 -0.109226 0)
(7.74688 -0.200652 0)
(6.99999 -0.295259 0)
(6.26696 -0.628823 0)
(4.04855 -1.001 0)
(2.00945 -1.82262 0)
)
;

boundaryField
{
    movingWall
    {
        type            fixedValue;
        value           uniform (10 0 0);
    }
    fixedWalls
    {
        type            noSlip;
    }
    frontAndBack
    {
        type            empty;
    }
}


// ************************************************************************* //
