/*--------------------------------*- C++ -*----------------------------------*\
| =========                 |                                                 |
| \\      /  F ield         | OpenFOAM: The Open Source CFD Toolbox           |
|  \\    /   O peration     | Version:  4.1                                   |
|   \\  /    A nd           | Web:      www.OpenFOAM.org                      |
|    \\/     M anipulation  |                                                 |
\*---------------------------------------------------------------------------*/
FoamFile
{
    version     2.0;
    format      ascii;
    class       volVectorField;
    location    "0.0714";
    object      U;
}
// * * * * * * * * * * * * * * * * * * * * * * * * * * * * * * * * * * * * * //

dimensions      [0 1 -1 0 0 0 0];

internalField   nonuniform List<vector> 
441
(
(0.00358869 -0.0047208 0)
(0.00932176 -0.0025414 0)
(-0.000635353 -2.19122e-165 0)
(0.00187895 -3.15374e-266 0)
(-0.00843273 -0.00751631 0)
(-0.00187895 -2.94409e-232 0)
(-1.1174e-202 -5.29817e-203 0)
(-1.32442e-203 -6.92745e-228 0)
(-1.65084e-212 -3.01254e-213 0)
(-0.0058897 8.75852e-266 0)
(-0.0719899 0.0235605 0)
(-0.0907084 0.0123878 0)
(-0.102574 0.00573366 0)
(-0.0908314 0.000484893 0)
(-0.0754679 -0.00149312 0)
(-0.0511258 -0.00286041 0)
(-0.0299633 -0.0020952 0)
(-0.0107316 -0.00164129 0)
(0.00132484 0.000577063 0)
(0.00371186 0.00131291 0)
(0.00438519 0.00284605 0)
(0.00362406 -0.00800099 0)
(-0.00131309 0.00670535 0)
(-0.0271495 0.0082062 0)
(-0.0579328 0.0106054 0)
(-0.10365 0.010428 0)
(-0.146466 -0.00346167 0)
(-0.186627 -0.000211511 0)
(-0.225111 0.0015613 0)
(-0.259265 0.0126341 0)
(-0.293815 0.0640569 0)
(-0.317567 0.0591807 0)
(-0.312483 0.0185952 0)
(-0.299069 -0.00616658 0)
(-0.259601 -0.028349 0)
(-0.213058 -0.0383624 0)
(-0.153684 -0.0439258 0)
(-0.0995974 -0.0381096 0)
(-0.0507793 -0.0309086 0)
(-0.0171824 -0.0145107 0)
(-0.00220021 -0.00510588 0)
(0.00469937 0.00547439 0)
(0.00724885 -0.00754768 0)
(-0.00529348 0.0278453 0)
(-0.0528238 0.0552397 0)
(-0.116791 0.074051 0)
(-0.194575 0.0798819 0)
(-0.274927 0.0789683 0)
(-0.360995 0.0758906 0)
(-0.430654 0.0702664 0)
(-0.499218 0.066073 0)
(-0.53272 0.0627295 0)
(-0.529039 0.0431423 0)
(-0.512352 -0.00490551 0)
(-0.478199 -0.0464692 0)
(-0.417124 -0.0853407 0)
(-0.34401 -0.10645 0)
(-0.254695 -0.116609 0)
(-0.171363 -0.103822 0)
(-0.0942485 -0.0845734 0)
(-0.0392713 -0.0469029 0)
(-0.00896418 -0.0210095 0)
(0.00611265 0.00575154 0)
(0.0061887 -0.0102547 0)
(-0.0154519 0.0684955 0)
(-0.0931692 0.119697 0)
(-0.18446 0.154708 0)
(-0.291755 0.168927 0)
(-0.399494 0.16565 0)
(-0.505426 0.157174 0)
(-0.596973 0.140659 0)
(-0.672397 0.117067 0)
(-0.717015 0.0912308 0)
(-0.726401 0.0385542 0)
(-0.704636 -0.0333629 0)
(-0.658366 -0.101545 0)
(-0.577636 -0.163708 0)
(-0.480361 -0.20062 0)
(-0.361418 -0.218095 0)
(-0.248622 -0.197994 0)
(-0.141339 -0.164674 0)
(-0.0633879 -0.0989216 0)
(-0.0159176 -0.0518762 0)
(0.00781376 0.00300541 0)
(6.68956e-165 0.00154718 0)
(-0.0232858 0.126756 0)
(-0.134734 0.223469 0)
(-0.248482 0.27122 0)
(-0.383636 0.293836 0)
(-0.51481 0.290833 0)
(-0.64527 0.27209 0)
(-0.755764 0.236162 0)
(-0.84776 0.185409 0)
(-0.902484 0.117427 0)
(-0.919687 0.0311779 0)
(-0.899355 -0.07269 0)
(-0.845809 -0.172702 0)
(-0.74978 -0.2637 0)
(-0.630261 -0.32158 0)
(-0.479962 -0.349243 0)
(-0.335257 -0.32241 0)
(-0.191114 -0.270936 0)
(-0.0876563 -0.170611 0)
(-0.0177483 -0.0930887 0)
(0.0144169 -0.00155692 0)
(-5.42719e-266 0.00557571 0)
(-0.0859787 0.207888 0)
(-0.18801 0.342947 0)
(-0.324423 0.405431 0)
(-0.472194 0.435135 0)
(-0.623599 0.428351 0)
(-0.769865 0.398753 0)
(-0.899136 0.343402 0)
(-1.00619 0.264657 0)
(-1.07802 0.162376 0)
(-1.1122 0.0357213 0)
(-1.10014 -0.108267 0)
(-1.04758 -0.250869 0)
(-0.940806 -0.380881 0)
(-0.801686 -0.469983 0)
(-0.618582 -0.515579 0)
(-0.437764 -0.485786 0)
(-0.250179 -0.41543 0)
(-0.115718 -0.270305 0)
(-0.0192141 -0.157178 0)
(0.016127 0.00097684 0)
(-0.0223028 0.0906991 0)
(-0.119757 0.311251 0)
(-0.237383 0.462284 0)
(-0.387535 0.553598 0)
(-0.553792 0.592207 0)
(-0.723264 0.587058 0)
(-0.889542 0.546822 0)
(-1.03869 0.471561 0)
(-1.16662 0.364057 0)
(-1.25888 0.223186 0)
(-1.31288 0.0537939 0)
(-1.31544 -0.137631 0)
(-1.27035 -0.33104 0)
(-1.15884 -0.510541 0)
(-1.00416 -0.642339 0)
(-0.786835 -0.715046 0)
(-0.566991 -0.688534 0)
(-0.322644 -0.595435 0)
(-0.154479 -0.398323 0)
(-0.00631039 -0.226781 0)
(5.91562e-266 -0.00403174 0)
(-0.0164219 0.150056 0)
(-0.114606 0.424119 0)
(-0.259806 0.611287 0)
(-0.430169 0.722621 0)
(-0.616175 0.771103 0)
(-0.804804 0.764393 0)
(-0.989785 0.714485 0)
(-1.16022 0.620348 0)
(-1.31054 0.485268 0)
(-1.428 0.308069 0)
(-1.50785 0.0926981 0)
(-1.53281 -0.15189 0)
(-1.50436 -0.406959 0)
(-1.39711 -0.6493 0)
(-1.23389 -0.841299 0)
(-0.986082 -0.956909 0)
(-0.724117 -0.94833 0)
(-0.417518 -0.834277 0)
(-0.2012 -0.582019 0)
(-0.00341712 -0.321164 0)
(2.53629e-24 -1.1058e-24 0)
(-0.0145937 0.21818 0)
(-0.118451 0.552793 0)
(-0.280495 0.776253 0)
(-0.466048 0.908125 0)
(-0.668837 0.965534 0)
(-0.873384 0.959062 0)
(-1.07576 0.901327 0)
(-1.26597 0.791154 0)
(-1.43903 0.63157 0)
(-1.58299 0.419837 0)
(-1.69165 0.159181 0)
(-1.74555 -0.141686 0)
(-1.74262 -0.465317 0)
(-1.65112 -0.782338 0)
(-1.49088 -1.05119 0)
(-1.22126 -1.22803 0)
(-0.920827 -1.25345 0)
(-0.545549 -1.12366 0)
(-0.270899 -0.804727 0)
(-0.0048451 -0.435809 0)
(1.03518e-76 -6.34073e-25 0)
(-0.0127549 0.283689 0)
(-0.116815 0.691723 0)
(-0.289 0.959621 0)
(-0.484106 1.11154 0)
(-0.697757 1.17886 0)
(-0.913081 1.17125 0)
(-1.12704 1.10729 0)
(-1.33245 0.98317 0)
(-1.52403 0.802442 0)
(-1.69269 0.559949 0)
(-1.83058 0.255561 0)
(-1.91797 -0.102126 0)
(-1.94915 -0.500741 0)
(-1.88671 -0.903705 0)
(-1.7449 -1.27033 0)
(-1.46943 -1.53295 0)
(-1.13992 -1.62253 0)
(-0.696949 -1.49454 0)
(-0.354306 -1.11709 0)
(-0.00686428 -0.607329 0)
(2.88282e-164 -2.58795e-77 0)
(-0.0129059 0.344341 0)
(-0.118856 0.827293 0)
(-0.297662 1.14125 0)
(-0.497279 1.31461 0)
(-0.714512 1.3928 0)
(-0.932508 1.38631 0)
(-1.14858 1.31957 0)
(-1.35966 1.18663 0)
(-1.55997 0.991363 0)
(-1.74556 0.725507 0)
(-1.90687 0.385039 0)
(-2.02781 -0.0235505 0)
(-2.09822 -0.494593 0)
(-2.07893 -0.987556 0)
(-1.97523 -1.46512 0)
(-1.71941 -1.83685 0)
(-1.38385 -2.021 0)
(-0.890016 -1.91755 0)
(-0.478959 -1.48315 0)
(-0.0789408 -0.803234 0)
(1.7689e-265 0.0131477 0)
(-0.013605 0.41636 0)
(-0.117147 0.97865 0)
(-0.295455 1.33953 0)
(-0.490817 1.52908 0)
(-0.700878 1.61523 0)
(-0.909904 1.60525 0)
(-1.11467 1.53506 0)
(-1.31748 1.39408 0)
(-1.51167 1.18848 0)
(-1.70037 0.906092 0)
(-1.8731 0.537845 0)
(-2.0205 0.0881746 0)
(-2.12968 -0.449086 0)
(-2.1633 -1.02896 0)
(-2.11727 -1.62873 0)
(-1.91121 -2.13094 0)
(-1.5987 -2.45076 0)
(-1.07279 -2.41379 0)
(-0.579209 -1.92233 0)
(-0.0751312 -1.10599 0)
(0.0525907 -0.0746622 0)
(-0.0170492 0.470719 0)
(-0.122245 1.1062 0)
(-0.3018 1.51201 0)
(-0.488739 1.71673 0)
(-0.680817 1.81007 0)
(-0.867506 1.79751 0)
(-1.04254 1.72617 0)
(-1.21813 1.58208 0)
(-1.38421 1.37397 0)
(-1.55567 1.0864 0)
(-1.71908 0.705869 0)
(-1.87875 0.233443 0)
(-2.01682 -0.349178 0)
(-2.10843 -0.999193 0)
(-2.1359 -1.71186 0)
(-2.01415 -2.3572 0)
(-1.7727 -2.85283 0)
(-1.24016 -2.94594 0)
(-0.71123 -2.47437 0)
(0.0416051 -1.44214 0)
(2.42776e-231 -0.0131477 0)
(-0.0217569 0.558598 0)
(-0.125758 1.26646 0)
(-0.299353 1.7099 0)
(-0.467555 1.90921 0)
(-0.627792 1.99717 0)
(-0.776299 1.96735 0)
(-0.903148 1.88767 0)
(-1.03112 1.73585 0)
(-1.1464 1.5268 0)
(-1.27624 1.24099 0)
(-1.40528 0.860858 0)
(-1.55316 0.385927 0)
(-1.7013 -0.219491 0)
(-1.84202 -0.91031 0)
(-1.95205 -1.72204 0)
(-1.95171 -2.49837 0)
(-1.84164 -3.22338 0)
(-1.40874 -3.49345 0)
(-0.892077 -3.19781 0)
(-0.00317472 -1.85466 0)
(5.78836e-202 4.57043e-184 0)
(-0.0378535 0.611279 0)
(-0.157973 1.37774 0)
(-0.335401 1.85006 0)
(-0.48313 2.03974 0)
(-0.593945 2.11733 0)
(-0.685902 2.06955 0)
(-0.737604 1.98086 0)
(-0.793372 1.82421 0)
(-0.82869 1.6197 0)
(-0.89035 1.34611 0)
(-0.954132 0.984213 0)
(-1.0645 0.532074 0)
(-1.19186 -0.0570207 0)
(-1.36872 -0.744338 0)
(-1.5462 -1.59409 0)
(-1.70352 -2.46426 0)
(-1.76218 -3.37939 0)
(-1.5432 -3.90415 0)
(-1.11258 -3.85654 0)
(-0.0113058 -2.36442 0)
(1.82817e-183 -9.97986e-185 0)
(-0.0565872 0.762534 0)
(-0.193069 1.56833 0)
(-0.362957 2.04457 0)
(-0.475847 2.16919 0)
(-0.51997 2.20719 0)
(-0.536962 2.11181 0)
(-0.4952 1.99951 0)
(-0.458699 1.82783 0)
(-0.393595 1.6257 0)
(-0.362858 1.3679 0)
(-0.335412 1.03506 0)
(-0.3748 0.626106 0)
(-0.447489 0.0831367 0)
(-0.616519 -0.552468 0)
(-0.834705 -1.3903 0)
(-1.12716 -2.27877 0)
(-1.4106 -3.3884 0)
(-1.51785 -4.14981 0)
(-1.40607 -4.74677 0)
(-0.464528 -3.01442 0)
(4.39456e-254 -4.57043e-184 0)
(-0.122347 0.847101 0)
(-0.326559 1.67102 0)
(-0.488624 2.1278 0)
(-0.553439 2.18712 0)
(-0.480424 2.17779 0)
(-0.387155 2.03991 0)
(-0.207532 1.90365 0)
(-0.0486386 1.7217 0)
(0.147474 1.52553 0)
(0.292076 1.29046 0)
(0.435081 0.998477 0)
(0.483924 0.650212 0)
(0.497435 0.188467 0)
(0.351589 -0.347676 0)
(0.148123 -1.07539 0)
(-0.302809 -1.87725 0)
(-0.747116 -2.96255 0)
(-1.47801 -3.90757 0)
(-1.65817 -4.81953 0)
(-2.07063 -3.84683 0)
(-2.57988e-264 -0.215356 0)
(-0.178439 1.23303 0)
(-0.422018 1.93897 0)
(-0.51722 2.29385 0)
(-0.480532 2.16123 0)
(-0.253011 2.05474 0)
(-0.0155039 1.83851 0)
(0.319191 1.66758 0)
(0.616448 1.47293 0)
(0.949339 1.28715 0)
(1.21546 1.08216 0)
(1.47668 0.842761 0)
(1.62802 0.568811 0)
(1.73971 0.21216 0)
(1.66947 -0.193632 0)
(1.52451 -0.746732 0)
(1.08547 -1.36717 0)
(0.555125 -2.24453 0)
(-0.368728 -3.1948 0)
(-1.09407 -4.24417 0)
(-1.84409 -4.52331 0)
(-0.861424 -2.31306 0)
(-0.400343 1.41329 0)
(-0.727377 1.98113 0)
(-0.525933 2.18052 0)
(-0.252263 1.90597 0)
(0.29576 1.71372 0)
(0.751407 1.45972 0)
(1.29882 1.27365 0)
(1.74958 1.0895 0)
(2.22003 0.928462 0)
(2.59087 0.766081 0)
(2.94774 0.58834 0)
(3.17138 0.395911 0)
(3.35809 0.150483 0)
(3.33448 -0.116838 0)
(3.25924 -0.48781 0)
(2.8355 -0.885918 0)
(2.36595 -1.50914 0)
(1.34741 -2.22877 0)
(0.447065 -3.34928 0)
(-0.71148 -4.00161 0)
(-0.70049 -2.96333 0)
(-0.256722 2.42266 0)
(-0.102599 2.05922 0)
(0.683472 1.86918 0)
(1.32737 1.33149 0)
(2.13879 1.07123 0)
(2.76076 0.828429 0)
(3.40986 0.67547 0)
(3.91888 0.547438 0)
(4.41626 0.446305 0)
(4.79697 0.354146 0)
(5.15159 0.260695 0)
(5.37259 0.163818 0)
(5.55764 0.0457671 0)
(5.54767 -0.0819485 0)
(5.49987 -0.257716 0)
(5.13802 -0.452338 0)
(4.75183 -0.787828 0)
(3.82315 -1.24363 0)
(2.86191 -2.2535 0)
(1.09026 -3.32978 0)
(-0.045832 -3.79923 0)
(1.66766 1.66997 0)
(2.70457 0.975044 0)
(4.54541 0.748535 0)
(5.38351 0.423605 0)
(6.24915 0.285905 0)
(6.757 0.177401 0)
(7.23424 0.120659 0)
(7.55571 0.0804778 0)
(7.85239 0.054313 0)
(8.05457 0.0340476 0)
(8.23723 0.015984 0)
(8.32819 -0.00107351 0)
(8.40295 -0.0220866 0)
(8.34799 -0.0429378 0)
(8.2895 -0.0784233 0)
(8.00471 -0.111623 0)
(7.75029 -0.201032 0)
(6.99689 -0.293728 0)
(6.26319 -0.62571 0)
(4.04624 -0.997823 0)
(2.00584 -1.81854 0)
)
;

boundaryField
{
    movingWall
    {
        type            fixedValue;
        value           uniform (10 0 0);
    }
    fixedWalls
    {
        type            noSlip;
    }
    frontAndBack
    {
        type            empty;
    }
}


// ************************************************************************* //
