/*--------------------------------*- C++ -*----------------------------------*\
| =========                 |                                                 |
| \\      /  F ield         | OpenFOAM: The Open Source CFD Toolbox           |
|  \\    /   O peration     | Version:  4.1                                   |
|   \\  /    A nd           | Web:      www.OpenFOAM.org                      |
|    \\/     M anipulation  |                                                 |
\*---------------------------------------------------------------------------*/
FoamFile
{
    version     2.0;
    format      ascii;
    class       volVectorField;
    location    "0.111112";
    object      U;
}
// * * * * * * * * * * * * * * * * * * * * * * * * * * * * * * * * * * * * * //

dimensions      [0 1 -1 0 0 0 0];

internalField   nonuniform List<vector> 
441
(
(0.000842758 -0.000813713 0)
(0.000204653 9.43485e-05 0)
(-0.00450723 0.000946641 0)
(-0.0121353 0.00164032 0)
(-0.0219403 0.00198504 0)
(-0.0325197 0.00209947 0)
(-0.0429875 0.00199418 0)
(-0.0523718 0.00172924 0)
(-0.0599662 0.00131923 0)
(-0.0651089 0.000791161 0)
(-0.0673221 0.000168126 0)
(-0.0662781 -0.00051002 0)
(-0.0619185 -0.00118511 0)
(-0.0544626 -0.00178468 0)
(-0.0445364 -0.00221449 0)
(-0.0330538 -0.00239857 0)
(-0.0213832 -0.00224117 0)
(-0.0108529 -0.00174944 0)
(-0.00314366 -0.000870958 0)
(0.0010053 8.8482e-05 0)
(0.000987216 0.000942835 0)
(7.23652e-06 -0.000261401 0)
(-0.00592123 0.00591645 0)
(-0.0205093 0.0121627 0)
(-0.0410557 0.0170451 0)
(-0.0659989 0.0197015 0)
(-0.0924286 0.0203484 0)
(-0.118249 0.0191377 0)
(-0.14123 0.0163626 0)
(-0.159639 0.0122436 0)
(-0.171935 0.00704508 0)
(-0.177016 0.00107479 0)
(-0.174198 -0.00525398 0)
(-0.163429 -0.0114086 0)
(-0.145312 -0.0167579 0)
(-0.121311 -0.020603 0)
(-0.0935391 -0.0223257 0)
(-0.0649764 -0.0214112 0)
(-0.0385596 -0.0178152 0)
(-0.0177777 -0.0117396 0)
(-0.00422131 -0.00476646 0)
(0.00032081 0.00108682 0)
(-0.000916537 0.0044515 0)
(-0.0131197 0.0206519 0)
(-0.0377858 0.0355857 0)
(-0.0702358 0.0467968 0)
(-0.108241 0.0528176 0)
(-0.147801 0.0538785 0)
(-0.186011 0.0503152 0)
(-0.219779 0.0427437 0)
(-0.246675 0.031748 0)
(-0.264555 0.018028 0)
(-0.271901 0.00242429 0)
(-0.267793 -0.0139829 0)
(-0.252174 -0.0298505 0)
(-0.225885 -0.0436238 0)
(-0.19092 -0.0536393 0)
(-0.150152 -0.0584178 0)
(-0.107632 -0.0568286 0)
(-0.0673852 -0.0487314 0)
(-0.0343022 -0.0347884 0)
(-0.0107677 -0.0180615 0)
(-0.000441939 -0.0024373 0)
(-0.00181845 0.0128814 0)
(-0.0202634 0.0432689 0)
(-0.0547481 0.0691417 0)
(-0.0983269 0.0876974 0)
(-0.148093 0.0972678 0)
(-0.199099 0.0982234 0)
(-0.247886 0.0911743 0)
(-0.290771 0.0771229 0)
(-0.324867 0.0570996 0)
(-0.347627 0.0323369 0)
(-0.35723 0.00432512 0)
(-0.352546 -0.0250528 0)
(-0.333434 -0.0534859 0)
(-0.300786 -0.0783129 0)
(-0.256851 -0.0967023 0)
(-0.204943 -0.106095 0)
(-0.149893 -0.104545 0)
(-0.0965962 -0.0916407 0)
(-0.0513627 -0.0683968 0)
(-0.0175436 -0.0391628 0)
(-0.00118785 -0.00936972 0)
(-0.00256193 0.0250227 0)
(-0.0267837 0.0739554 0)
(-0.0705795 0.113106 0)
(-0.124655 0.13996 0)
(-0.185383 0.153124 0)
(-0.246907 0.153339 0)
(-0.305349 0.141639 0)
(-0.356592 0.119497 0)
(-0.397456 0.088457 0)
(-0.425102 0.0503415 0)
(-0.437452 0.00735003 0)
(-0.433129 -0.0377603 0)
(-0.411779 -0.0816129 0)
(-0.374143 -0.120296 0)
(-0.322484 -0.149608 0)
(-0.260317 -0.165636 0)
(-0.193107 -0.165306 0)
(-0.126609 -0.147604 0)
(-0.0687763 -0.11363 0)
(-0.0242174 -0.0687763 0)
(-0.00180462 -0.0198399 0)
(-0.00323142 0.0403537 0)
(-0.0327907 0.111855 0)
(-0.0853141 0.166438 0)
(-0.149232 0.202386 0)
(-0.220199 0.219075 0)
(-0.291507 0.217914 0)
(-0.35896 0.200567 0)
(-0.418139 0.169067 0)
(-0.465689 0.125517 0)
(-0.498567 0.0723198 0)
(-0.514458 0.0123601 0)
(-0.511675 -0.0507569 0)
(-0.489508 -0.112585 0)
(-0.448327 -0.167886 0)
(-0.390145 -0.210907 0)
(-0.318428 -0.236059 0)
(-0.239135 -0.238697 0)
(-0.158881 -0.216679 0)
(-0.0875427 -0.170738 0)
(-0.0313263 -0.107015 0)
(-0.0024307 -0.0336946 0)
(-0.00383192 0.0587013 0)
(-0.038329 0.156617 0)
(-0.0989786 0.228721 0)
(-0.172043 0.274542 0)
(-0.252492 0.294707 0)
(-0.332849 0.291613 0)
(-0.4087 0.267785 0)
(-0.475457 0.225918 0)
(-0.529707 0.168694 0)
(-0.568285 0.099047 0)
(-0.588666 0.0204595 0)
(-0.588801 -0.0627171 0)
(-0.567481 -0.145038 0)
(-0.524475 -0.219921 0)
(-0.461246 -0.279899 0)
(-0.380903 -0.317318 0)
(-0.289662 -0.325386 0)
(-0.194934 -0.300086 0)
(-0.108784 -0.241126 0)
(-0.0394294 -0.154991 0)
(-0.00314298 -0.0513724 0)
(-0.00440339 0.0798118 0)
(-0.0434952 0.20768 0)
(-0.11164 0.299191 0)
(-0.193023 0.355531 0)
(-0.281974 0.379074 0)
(-0.370369 0.373553 0)
(-0.453706 0.342614 0)
(-0.527388 0.289714 0)
(-0.588093 0.218118 0)
(-0.63266 0.131196 0)
(-0.658416 0.0328692 0)
(-0.662946 -0.0719563 0)
(-0.644425 -0.177012 0)
(-0.601803 -0.274449 0)
(-0.535647 -0.354997 0)
(-0.448291 -0.408546 0)
(-0.345796 -0.425459 0)
(-0.236131 -0.398821 0)
(-0.133693 -0.326336 0)
(-0.0491971 -0.214136 0)
(-0.00406784 -0.0735265 0)
(-0.00495513 0.103498 0)
(-0.048349 0.26454 0)
(-0.123322 0.377074 0)
(-0.212006 0.444353 0)
(-0.308123 0.471054 0)
(-0.40306 0.462617 0)
(-0.492394 0.424106 0)
(-0.571745 0.359838 0)
(-0.638072 0.273662 0)
(-0.688414 0.169245 0)
(-0.720081 0.0507299 0)
(-0.73037 -0.0766983 0)
(-0.716799 -0.20624 0)
(-0.677319 -0.329 0)
(-0.611229 -0.43395 0)
(-0.519565 -0.508208 0)
(-0.407578 -0.538546 0)
(-0.28327 -0.513818 0)
(-0.163269 -0.428299 0)
(-0.0612711 -0.28649 0)
(-0.00532033 -0.101227 0)
(-0.00553796 0.129712 0)
(-0.0530233 0.326812 0)
(-0.134107 0.461559 0)
(-0.228791 0.539739 0)
(-0.330199 0.569038 0)
(-0.429447 0.557028 0)
(-0.522404 0.510547 0)
(-0.605206 0.43488 0)
(-0.675354 0.334452 0)
(-0.730366 0.213063 0)
(-0.767767 0.0748163 0)
(-0.784756 -0.0751941 0)
(-0.778264 -0.230066 0)
(-0.745176 -0.380261 0)
(-0.683175 -0.513282 0)
(-0.591402 -0.613354 0)
(-0.473372 -0.663001 0)
(-0.336208 -0.64523 0)
(-0.198177 -0.548865 0)
(-0.0763061 -0.374514 0)
(-0.00706612 -0.135961 0)
(-0.0062064 0.158256 0)
(-0.057806 0.393809 0)
(-0.144325 0.551347 0)
(-0.243394 0.639694 0)
(-0.34751 0.670498 0)
(-0.447843 0.653939 0)
(-0.540833 0.599071 0)
(-0.623538 0.51225 0)
(-0.694333 0.398482 0)
(-0.75159 0.261526 0)
(-0.793387 0.105151 0)
(-0.817159 -0.0660674 0)
(-0.819486 -0.245683 0)
(-0.796293 -0.424139 0)
(-0.743409 -0.588079 0)
(-0.657518 -0.719081 0)
(-0.539209 -0.79508 0)
(-0.393373 -0.791491 0)
(-0.238524 -0.689029 0)
(-0.0949455 -0.480617 0)
(-0.00950583 -0.179463 0)
(-0.00717179 0.18976 0)
(-0.0633016 0.46578 0)
(-0.154612 0.645721 0)
(-0.255987 0.742239 0)
(-0.359254 0.772406 0)
(-0.456154 0.749588 0)
(-0.544054 0.685602 0)
(-0.621465 0.587968 0)
(-0.688017 0.462285 0)
(-0.743397 0.312089 0)
(-0.786656 0.140523 0)
(-0.815949 -0.0488165 0)
(-0.827934 -0.250603 0)
(-0.817935 -0.456104 0)
(-0.779932 -0.652118 0)
(-0.707775 -0.818362 0)
(-0.597805 -0.928477 0)
(-0.450932 -0.94875 0)
(-0.283385 -0.848635 0)
(-0.117784 -0.6074 0)
(-0.0129778 -0.234288 0)
(-0.00869879 0.224146 0)
(-0.0707221 0.541736 0)
(-0.16646 0.742341 0)
(-0.26752 0.843419 0)
(-0.365053 0.869598 0)
(-0.4523 0.838035 0)
(-0.528044 0.763934 0)
(-0.592964 0.655997 0)
(-0.648358 0.520422 0)
(-0.695729 0.360355 0)
(-0.735558 0.178071 0)
(-0.767307 -0.0242308 0)
(-0.788308 -0.243023 0)
(-0.793969 -0.47139 0)
(-0.776771 -0.69769 0)
(-0.727801 -0.901242 0)
(-0.637907 -1.0527 0)
(-0.502106 -1.10848 0)
(-0.330374 -1.02372 0)
(-0.145353 -0.755465 0)
(-0.017922 -0.302661 0)
(-0.0115891 0.264876 0)
(-0.081934 0.624512 0)
(-0.181428 0.841545 0)
(-0.278313 0.940396 0)
(-0.363208 0.956843 0)
(-0.432451 0.912438 0)
(-0.486823 0.826441 0)
(-0.530053 0.708571 0)
(-0.565452 0.565534 0)
(-0.596801 0.39989 0)
(-0.626372 0.212844 0)
(-0.655505 0.00487892 0)
(-0.682898 -0.222869 0)
(-0.705023 -0.466321 0)
(-0.713699 -0.717099 0)
(-0.698074 -0.956311 0)
(-0.642742 -1.15428 0)
(-0.535321 -1.25836 0)
(-0.374103 -1.20756 0)
(-0.177649 -0.925388 0)
(-0.0251574 -0.389158 0)
(-0.0168457 0.311588 0)
(-0.100581 0.710935 0)
(-0.202775 0.937089 0)
(-0.289559 1.02405 0)
(-0.35156 1.0235 0)
(-0.391279 0.961636 0)
(-0.41224 0.862175 0)
(-0.422385 0.735387 0)
(-0.427222 0.588231 0)
(-0.433082 0.422466 0)
(-0.444124 0.238133 0)
(-0.463901 0.0339106 0)
(-0.49303 -0.191743 0)
(-0.530181 -0.438319 0)
(-0.567818 -0.702364 0)
(-0.595016 -0.969465 0)
(-0.590381 -1.21372 0)
(-0.533916 -1.37669 0)
(-0.405597 -1.3825 0)
(-0.214087 -1.10904 0)
(-0.0356623 -0.494838 0)
(-0.0269281 0.378544 0)
(-0.129502 0.811568 0)
(-0.228672 1.03191 0)
(-0.294242 1.08964 0)
(-0.318039 1.06037 0)
(-0.313295 0.974309 0)
(-0.286748 0.85936 0)
(-0.251616 0.725123 0)
(-0.215326 0.57806 0)
(-0.186606 0.418675 0)
(-0.171099 0.245706 0)
(-0.174415 0.0561185 0)
(-0.199204 -0.154198 0)
(-0.247264 -0.388506 0)
(-0.313264 -0.649441 0)
(-0.389306 -0.929822 0)
(-0.450092 -1.21292 0)
(-0.470691 -1.44083 0)
(-0.406419 -1.52936 0)
(-0.249907 -1.30069 0)
(-0.0510929 -0.629766 0)
(-0.045107 0.457264 0)
(-0.176281 0.907007 0)
(-0.257772 1.10078 0)
(-0.281343 1.11112 0)
(-0.242108 1.04387 0)
(-0.172313 0.93096 0)
(-0.0815642 0.802541 0)
(0.0109339 0.665841 0)
(0.0970959 0.525692 0)
(0.166775 0.380919 0)
(0.214036 0.228953 0)
(0.232126 0.0654953 0)
(0.217004 -0.115352 0)
(0.163513 -0.319799 0)
(0.073581 -0.556223 0)
(-0.051777 -0.826196 0)
(-0.187558 -1.12724 0)
(-0.311404 -1.41154 0)
(-0.349805 -1.6002 0)
(-0.276414 -1.46102 0)
(-0.0724535 -0.781658 0)
(-0.0738406 0.602958 0)
(-0.223238 1.02525 0)
(-0.244234 1.1472 0)
(-0.188404 1.07603 0)
(-0.0548103 0.957061 0)
(0.0991604 0.815765 0)
(0.264657 0.679145 0)
(0.418287 0.548513 0)
(0.55407 0.424885 0)
(0.662527 0.304643 0)
(0.73928 0.183785 0)
(0.778031 0.0572745 0)
(0.774714 -0.0814443 0)
(0.721734 -0.239953 0)
(0.617635 -0.430388 0)
(0.453569 -0.662483 0)
(0.248245 -0.951146 0)
(0.00730901 -1.26997 0)
(-0.172865 -1.5681 0)
(-0.255782 -1.5757 0)
(-0.0971066 -0.979259 0)
(-0.113445 0.725022 0)
(-0.252625 1.05137 0)
(-0.114513 1.06599 0)
(0.0821115 0.91349 0)
(0.349667 0.758125 0)
(0.600569 0.610269 0)
(0.83861 0.485541 0)
(1.0421 0.378212 0)
(1.2124 0.284654 0)
(1.34412 0.199458 0)
(1.43676 0.117938 0)
(1.48635 0.035406 0)
(1.49032 -0.0537093 0)
(1.44029 -0.156008 0)
(1.33273 -0.283039 0)
(1.14863 -0.447803 0)
(0.89644 -0.676764 0)
(0.547063 -0.971233 0)
(0.202235 -1.32867 0)
(-0.130141 -1.49781 0)
(-0.105379 -1.11029 0)
(-0.0424261 1.02212 0)
(0.0571266 1.02232 0)
(0.49047 0.848185 0)
(0.851302 0.610985 0)
(1.22146 0.446729 0)
(1.51827 0.325119 0)
(1.77238 0.238878 0)
(1.97342 0.174598 0)
(2.13256 0.124382 0)
(2.25031 0.0825172 0)
(2.3303 0.0449029 0)
(2.37158 0.0083115 0)
(2.37383 -0.0305761 0)
(2.33017 -0.075858 0)
(2.23773 -0.134991 0)
(2.0736 -0.219 0)
(1.83835 -0.355099 0)
(1.46514 -0.567635 0)
(1.01732 -0.92167 0)
(0.371888 -1.2531 0)
(0.0358804 -1.27776 0)
(0.845213 0.576334 0)
(1.3163 0.399716 0)
(2.06229 0.261957 0)
(2.45485 0.155222 0)
(2.77686 0.0930937 0)
(2.98415 0.0568363 0)
(3.13926 0.0350631 0)
(3.24766 0.0218701 0)
(3.32612 0.0130871 0)
(3.37915 0.00683188 0)
(3.41166 0.00176989 0)
(3.42446 -0.00291908 0)
(3.41837 -0.00789218 0)
(3.38937 -0.0142547 0)
(3.336 -0.0234309 0)
(3.23954 -0.0390858 0)
(3.09737 -0.0680598 0)
(2.82735 -0.122203 0)
(2.45462 -0.231272 0)
(1.63352 -0.388072 0)
(0.92422 -0.587294 0)
)
;

boundaryField
{
    movingWall
    {
        type            fixedValue;
        value           uniform (4 0 0);
    }
    fixedWalls
    {
        type            noSlip;
    }
    frontAndBack
    {
        type            empty;
    }
}


// ************************************************************************* //
