/*--------------------------------*- C++ -*----------------------------------*\
| =========                 |                                                 |
| \\      /  F ield         | OpenFOAM: The Open Source CFD Toolbox           |
|  \\    /   O peration     | Version:  4.1                                   |
|   \\  /    A nd           | Web:      www.OpenFOAM.org                      |
|    \\/     M anipulation  |                                                 |
\*---------------------------------------------------------------------------*/
FoamFile
{
    version     2.0;
    format      ascii;
    class       volScalarField;
    location    "0.0154";
    object      p;
}
// * * * * * * * * * * * * * * * * * * * * * * * * * * * * * * * * * * * * * //

dimensions      [1 -1 -2 0 0 0 0];

internalField   nonuniform List<scalar> 
441
(
100000
99999.9
99999.8
99999.7
99999.8
99999.5
99999.8
99999.9
99999.9
100001
100001
100001
100001
100001
100001
100001
100001
100001
100001
100001
100000
100000
100000
100000
100000
100000
100000
100000
100000
100000
100000
100000
100000
100000
100001
100000
100001
100000
100001
100000
100001
100000
100000
99999.9
100000
99999.9
100000
99999.9
100000
100000
100000
100000
100000
100001
100001
100001
100001
100001
100001
100001
100000
100001
100000
100000
100000
100000
100000
100000
100000
100000
100000
100000
100000
100000
100000
100000
100001
100000
100001
100000
100001
100000
100001
100000
100001
99999.8
100000
99999.8
99999.9
99999.9
100000
100000
100000
100000
100000
100000
100000
100001
100001
100001
100001
100001
100000
100001
100000
99999.6
99999.9
99999.8
99999.9
99999.9
99999.9
100000
100000
100000
100000
100000
100000
100000
100001
100000
100001
100000
100001
100000
100001
100000
99999.3
99999.5
99999.5
99999.6
99999.6
99999.7
99999.8
99999.9
100000
100000
100000
100000
100000
100001
100001
100001
100001
100001
100000
100001
99999.8
99999.6
99999.5
99999.5
99999.5
99999.5
99999.6
99999.7
99999.8
99999.9
100000
100000
100000
100000
100001
100001
100001
100001
100001
100000
100001
99999.9
99999.1
99999
99999
99999.1
99999.1
99999.2
99999.3
99999.5
99999.7
99999.9
100000
100000
100000
100001
100001
100001
100001
100001
100001
100001
100000
99999.1
99998.9
99998.9
99998.9
99998.9
99999
99999.1
99999.3
99999.4
99999.7
99999.9
100000
100000
100001
100001
100001
100001
100001
100001
100001
99999.5
99998.4
99998.2
99998.1
99998.2
99998.3
99998.5
99998.6
99998.8
99999
99999.4
99999.6
100000
100000
100001
100001
100001
100001
100002
100001
100002
100001
99998.2
99998
99997.9
99998
99998
99998.2
99998.2
99998.5
99998.6
99998.9
99999.2
99999.6
100000
100000
100001
100001
100001
100002
100001
100002
100001
99997.1
99996.9
99996.8
99997
99997
99997.3
99997.4
99997.7
99998
99998.4
99998.8
99999.3
99999.9
100000
100001
100002
100002
100003
100002
100003
99999.2
99997
99996.8
99996.6
99996.8
99996.6
99996.9
99996.8
99997.2
99997.3
99997.7
99998.1
99998.5
99999.2
99999.7
100001
100001
100002
100003
100002
100003
99999.2
99994.9
99995
99994.7
99995.3
99995.1
99995.7
99995.7
99996.2
99996.4
99996.8
99997.4
99997.8
99998.7
99999.2
100001
100001
100003
100004
100004
100005
99997.8
99995.2
99995.3
99994.6
99995.3
99994.7
99995.3
99995.1
99995.5
99995.6
99995.9
99996.4
99996.7
99997.6
99997.9
99999.4
100000
100002
100004
100002
100005
99990.6
99991
99992.3
99991.4
99993.3
99992.7
99993.9
99993.7
99994.4
99994.6
99995
99995.7
99995.9
99997.1
99997.2
99999.6
99999.8
100004
100004
100013
100007
100027
99991.8
99993.4
99991.9
99993.7
99992.6
99993.7
99993.2
99993.9
99993.9
99994.3
99994.8
99994.9
99996.1
99996
99998.2
99998.4
100003
100004
100013
100015
100030
99980.8
99988.5
99986.6
99991.5
99990.5
99992.7
99992.4
99993.4
99993.6
99994
99994.7
99994.8
99996.2
99996.1
99999.1
99999
100006
100007
100021
100024
100041
99982.2
99991.3
99988.8
99993
99991.5
99993.4
99992.8
99993.6
99993.6
99994
99994.6
99994.6
99996.1
99995.9
99999
99999.1
100006
100008
100022
100028
100050
99940.9
99984.9
99983.7
99993.8
99992.1
99994.8
99993.9
99994.7
99994.5
99994.8
99995.3
99995.3
99996.8
99996.7
100000
100001
100009
100012
100035
100045
100104
)
;

boundaryField
{
    movingWall
    {
        type            zeroGradient;
    }
    fixedWalls
    {
        type            zeroGradient;
    }
    frontAndBack
    {
        type            empty;
    }
}


// ************************************************************************* //
