/*--------------------------------*- C++ -*----------------------------------*\
| =========                 |                                                 |
| \\      /  F ield         | OpenFOAM: The Open Source CFD Toolbox           |
|  \\    /   O peration     | Version:  4.1                                   |
|   \\  /    A nd           | Web:      www.OpenFOAM.org                      |
|    \\/     M anipulation  |                                                 |
\*---------------------------------------------------------------------------*/
FoamFile
{
    version     2.0;
    format      ascii;
    class       volVectorField;
    location    "0.00261";
    object      U;
}
// * * * * * * * * * * * * * * * * * * * * * * * * * * * * * * * * * * * * * //

dimensions      [0 1 -1 0 0 0 0];

internalField   nonuniform List<vector> 
1681
(
(-3.80513e-05 4.50873e-05 0)
(-0.00121649 0.000705374 0)
(-0.00398795 0.00117584 0)
(-0.00762521 0.0014382 0)
(-0.0116952 0.0015401 0)
(-0.0158907 0.00155868 0)
(-0.0200625 0.00153325 0)
(-0.0241266 0.00148379 0)
(-0.028033 0.00141858 0)
(-0.0317458 0.00134153 0)
(-0.0352365 0.0012547 0)
(-0.0384809 0.0011594 0)
(-0.0414579 0.00105662 0)
(-0.0441487 0.000947147 0)
(-0.0465364 0.000831711 0)
(-0.0486062 0.000710995 0)
(-0.0503451 0.000585676 0)
(-0.0517419 0.000456443 0)
(-0.0527871 0.000324004 0)
(-0.0534735 0.000189093 0)
(-0.0537956 5.24763e-05 0)
(-0.05375 -8.50493e-05 0)
(-0.0533356 -0.000222655 0)
(-0.0525534 -0.000359479 0)
(-0.0514069 -0.000494636 0)
(-0.0499018 -0.000627214 0)
(-0.0480462 -0.000756286 0)
(-0.0458509 -0.000880913 0)
(-0.043329 -0.00100016 0)
(-0.040496 -0.00111312 0)
(-0.0373701 -0.00121892 0)
(-0.0339715 -0.00131675 0)
(-0.0303226 -0.00140587 0)
(-0.0264481 -0.00148556 0)
(-0.0223751 -0.0015544 0)
(-0.0181371 -0.00160796 0)
(-0.013788 -0.00163159 0)
(-0.00943719 -0.00158599 0)
(-0.00534371 -0.00138419 0)
(-0.00197934 -0.00091816 0)
(-0.000201301 -0.000189404 0)
(-0.000477543 0.00109222 0)
(-0.00386155 0.00455728 0)
(-0.0104291 0.00706718 0)
(-0.0187016 0.00846416 0)
(-0.0278275 0.0090314 0)
(-0.0371833 0.00913309 0)
(-0.0464617 0.00898391 0)
(-0.0554861 0.0086927 0)
(-0.0641504 0.00830832 0)
(-0.0723779 0.0078541 0)
(-0.0801074 0.00734256 0)
(-0.0872867 0.00678168 0)
(-0.0938702 0.00617733 0)
(-0.099817 0.00553428 0)
(-0.105091 0.00485683 0)
(-0.10966 0.004149 0)
(-0.113495 0.0034148 0)
(-0.116573 0.00265824 0)
(-0.118873 0.00188345 0)
(-0.12038 0.00109471 0)
(-0.121081 0.000296441 0)
(-0.120971 -0.000506742 0)
(-0.120046 -0.00131006 0)
(-0.11831 -0.00210857 0)
(-0.115769 -0.00289718 0)
(-0.112438 -0.00367065 0)
(-0.108333 -0.00442366 0)
(-0.103477 -0.00515085 0)
(-0.0979012 -0.00584684 0)
(-0.0916378 -0.00650635 0)
(-0.0847266 -0.00712426 0)
(-0.0772122 -0.00769571 0)
(-0.069144 -0.00821602 0)
(-0.0605767 -0.00867987 0)
(-0.0515718 -0.00907753 0)
(-0.042205 -0.00938195 0)
(-0.032592 -0.00951334 0)
(-0.0229503 -0.0092675 0)
(-0.0137625 -0.00822709 0)
(-0.00589356 -0.00583146 0)
(-0.000935892 -0.00194487 0)
(-0.000588505 0.00312058 0)
(-0.00498302 0.0107508 0)
(-0.0137915 0.0160823 0)
(-0.0247575 0.0190122 0)
(-0.0367662 0.0201804 0)
(-0.0489889 0.0203512 0)
(-0.0610492 0.0199849 0)
(-0.0727378 0.0193147 0)
(-0.0839339 0.0184456 0)
(-0.0945493 0.0174267 0)
(-0.104512 0.0162843 0)
(-0.11376 0.0150349 0)
(-0.122236 0.0136909 0)
(-0.12989 0.0122624 0)
(-0.136676 0.0107585 0)
(-0.142554 0.00918821 0)
(-0.147487 0.00756009 0)
(-0.151446 0.005883 0)
(-0.154404 0.00416599 0)
(-0.156342 0.00241845 0)
(-0.157244 0.000650089 0)
(-0.157102 -0.00112897 0)
(-0.155912 -0.00290825 0)
(-0.153678 -0.00467691 0)
(-0.15041 -0.00642376 0)
(-0.146123 -0.00813733 0)
(-0.14084 -0.00980595 0)
(-0.134592 -0.0114178 0)
(-0.127414 -0.0129611 0)
(-0.11935 -0.0144242 0)
(-0.11045 -0.0157956 0)
(-0.100771 -0.0170644 0)
(-0.0903774 -0.0182196 0)
(-0.0793385 -0.0192485 0)
(-0.0677342 -0.0201286 0)
(-0.0556616 -0.020802 0)
(-0.0432644 -0.0211065 0)
(-0.0308024 -0.0206363 0)
(-0.018838 -0.0185661 0)
(-0.00838769 -0.013706 0)
(-0.00141509 -0.00530776 0)
(-0.000260195 0.00487053 0)
(-0.00443536 0.0178794 0)
(-0.0145939 0.0267447 0)
(-0.0272031 0.0314835 0)
(-0.040916 0.0332732 0)
(-0.0547305 0.0334342 0)
(-0.06826 0.0327464 0)
(-0.0813047 0.0315915 0)
(-0.0937589 0.0301342 0)
(-0.105543 0.0284478 0)
(-0.11659 0.0265696 0)
(-0.126836 0.024523 0)
(-0.136223 0.0223258 0)
(-0.144697 0.0199933 0)
(-0.15221 0.0175396 0)
(-0.158718 0.0149787 0)
(-0.164181 0.0123243 0)
(-0.168566 0.00959053 0)
(-0.171845 0.00679204 0)
(-0.173996 0.0039439 0)
(-0.175001 0.00106181 0)
(-0.174851 -0.0018379 0)
(-0.173542 -0.00473829 0)
(-0.171077 -0.00762179 0)
(-0.167466 -0.0104703 0)
(-0.162727 -0.0132652 0)
(-0.156883 -0.0159877 0)
(-0.149967 -0.0186184 0)
(-0.142019 -0.0211381 0)
(-0.133086 -0.0235279 0)
(-0.123224 -0.0257689 0)
(-0.112495 -0.0278429 0)
(-0.100968 -0.0297316 0)
(-0.0887234 -0.0314136 0)
(-0.0758474 -0.0328522 0)
(-0.0624466 -0.0339566 0)
(-0.0486756 -0.0344782 0)
(-0.0348087 -0.0337979 0)
(-0.0214396 -0.0306445 0)
(-0.00966053 -0.023085 0)
(-0.0016525 -0.00947507 0)
(0.00024112 0.00629183 0)
(-0.0025652 0.0257198 0)
(-0.0140667 0.0387573 0)
(-0.0279446 0.0453667 0)
(-0.0428507 0.0476518 0)
(-0.0576677 0.0476443 0)
(-0.0720567 0.0465027 0)
(-0.0858545 0.0447614 0)
(-0.0989845 0.0426364 0)
(-0.111384 0.0402154 0)
(-0.122994 0.0375403 0)
(-0.133755 0.0346375 0)
(-0.14361 0.0315282 0)
(-0.152507 0.0282317 0)
(-0.160395 0.0247667 0)
(-0.16723 0.0211516 0)
(-0.17297 0.0174056 0)
(-0.177581 0.013548 0)
(-0.181033 0.00959917 0)
(-0.183303 0.00558005 0)
(-0.184372 0.00151257 0)
(-0.18423 -0.00258045 0)
(-0.182872 -0.0066753 0)
(-0.1803 -0.0107474 0)
(-0.176523 -0.0147712 0)
(-0.17156 -0.0187207 0)
(-0.165433 -0.0225692 0)
(-0.158177 -0.0262895 0)
(-0.149832 -0.0298545 0)
(-0.140447 -0.0332371 0)
(-0.13008 -0.0364106 0)
(-0.118795 -0.0393489 0)
(-0.106666 -0.0420256 0)
(-0.0937746 -0.04441 0)
(-0.0802128 -0.0464509 0)
(-0.0660916 -0.0480238 0)
(-0.0515707 -0.0487924 0)
(-0.0369326 -0.0479173 0)
(-0.0227922 -0.0436539 0)
(-0.0102951 -0.0332541 0)
(-0.00176118 -0.0140421 0)
(6.09381e-268 6.02799e-05 0)
(-0.00220836 0.0328 0)
(-0.0143525 0.0515773 0)
(-0.0289168 0.060208 0)
(-0.0445106 0.062882 0)
(-0.0599432 0.0625717 0)
(-0.0748834 0.0608718 0)
(-0.0891788 0.058469 0)
(-0.102763 0.0556209 0)
(-0.11558 0.0524213 0)
(-0.127574 0.0489112 0)
(-0.138687 0.0451171 0)
(-0.148865 0.0410617 0)
(-0.158054 0.0367673 0)
(-0.166203 0.0322565 0)
(-0.173267 0.0275522 0)
(-0.179204 0.0226784 0)
(-0.183979 0.0176597 0)
(-0.187561 0.012522 0)
(-0.189925 0.00729226 0)
(-0.191052 0.00199855 0)
(-0.190928 -0.00332976 0)
(-0.18955 -0.00866209 0)
(-0.186916 -0.0139666 0)
(-0.183037 -0.0192105 0)
(-0.177928 -0.0243598 0)
(-0.171613 -0.0293797 0)
(-0.164125 -0.0342349 0)
(-0.155505 -0.0388898 0)
(-0.145802 -0.0433089 0)
(-0.135074 -0.0474571 0)
(-0.123388 -0.0512998 0)
(-0.110819 -0.0548021 0)
(-0.0974521 -0.0579235 0)
(-0.0833821 -0.0605977 0)
(-0.0687235 -0.0626663 0)
(-0.0536414 -0.0637027 0)
(-0.0384273 -0.0626396 0)
(-0.0237189 -0.0572371 0)
(-0.0107104 -0.0438863 0)
(-0.00182829 -0.0188205 0)
(5.61952e-27 4.07486e-25 0)
(-0.00380373 0.0410862 0)
(-0.0159902 0.0648589 0)
(-0.0308292 0.0754767 0)
(-0.0467242 0.0785564 0)
(-0.0625262 0.0779445 0)
(-0.0778632 0.0756731 0)
(-0.0925626 0.0725881 0)
(-0.106542 0.0689928 0)
(-0.119736 0.064989 0)
(-0.132086 0.0606179 0)
(-0.14353 0.0559062 0)
(-0.154013 0.0508781 0)
(-0.163481 0.0455589 0)
(-0.171881 0.0399747 0)
(-0.179168 0.0341528 0)
(-0.1853 0.0281218 0)
(-0.190239 0.0219115 0)
(-0.193952 0.0155533 0)
(-0.196415 0.00907991 0)
(-0.197606 0.00252554 0)
(-0.197511 -0.00407393 0)
(-0.196123 -0.010681 0)
(-0.193441 -0.0172568 0)
(-0.189473 -0.0237606 0)
(-0.184232 -0.0301506 0)
(-0.177742 -0.0363838 0)
(-0.170034 -0.0424162 0)
(-0.16115 -0.0482035 0)
(-0.151137 -0.0537011 0)
(-0.140055 -0.058865 0)
(-0.127973 -0.0636515 0)
(-0.114966 -0.0680168 0)
(-0.101122 -0.0719099 0)
(-0.0865395 -0.0752485 0)
(-0.0713374 -0.0778391 0)
(-0.0556871 -0.0791615 0)
(-0.0398922 -0.0779113 0)
(-0.0246172 -0.0713322 0)
(-0.0111075 -0.0549177 0)
(-0.00189241 -0.0237717 0)
(-4.25106e-79 1.40488e-27 0)
(-0.00550211 0.0497795 0)
(-0.0181962 0.0783726 0)
(-0.0333823 0.0909634 0)
(-0.0495281 0.0945008 0)
(-0.065651 0.0936507 0)
(-0.0813638 0.0908481 0)
(-0.0964712 0.087096 0)
(-0.110865 0.08275 0)
(-0.124464 0.0779276 0)
(-0.137199 0.072675 0)
(-0.149007 0.0670219 0)
(-0.159827 0.0609957 0)
(-0.169604 0.0546248 0)
(-0.178285 0.0479393 0)
(-0.185823 0.0409707 0)
(-0.192173 0.0337522 0)
(-0.197298 0.0263188 0)
(-0.201164 0.0187069 0)
(-0.203743 0.0109551 0)
(-0.205012 0.00310362 0)
(-0.204955 -0.00480528 0)
(-0.203564 -0.0127273 0)
(-0.200835 -0.0206162 0)
(-0.196773 -0.0284237 0)
(-0.191391 -0.0360998 0)
(-0.18471 -0.0435929 0)
(-0.176761 -0.0508501 0)
(-0.167582 -0.0578177 0)
(-0.157223 -0.0644417 0)
(-0.145744 -0.0706684 0)
(-0.133212 -0.0764445 0)
(-0.119708 -0.081716 0)
(-0.10532 -0.086421 0)
(-0.0901518 -0.0904601 0)
(-0.0743272 -0.0936027 0)
(-0.0580258 -0.0952305 0)
(-0.0415662 -0.0937914 0)
(-0.0256445 -0.0859901 0)
(-0.0115642 -0.0663852 0)
(-0.0019677 -0.028912 0)
(-3.11315e-166 -1.06276e-79 0)
(-0.00808831 0.0594191 0)
(-0.0210371 0.0924373 0)
(-0.0364618 0.106755 0)
(-0.052831 0.11074 0)
(-0.0693124 0.109713 0)
(-0.0854598 0.106431 0)
(-0.101038 0.102035 0)
(-0.115906 0.0969385 0)
(-0.129968 0.091284 0)
(-0.143143 0.0851289 0)
(-0.155365 0.0785093 0)
(-0.166571 0.0714571 0)
(-0.176702 0.0640051 0)
(-0.185706 0.0561873 0)
(-0.193533 0.0480397 0)
(-0.200137 0.0395999 0)
(-0.205479 0.0309078 0)
(-0.209524 0.0220051 0)
(-0.21224 0.0129356 0)
(-0.213605 0.00374565 0)
(-0.213599 -0.00551629 0)
(-0.212209 -0.0147992 0)
(-0.209432 -0.0240496 0)
(-0.205269 -0.0332114 0)
(-0.199731 -0.0422263 0)
(-0.192836 -0.0510339 0)
(-0.184612 -0.0595718 0)
(-0.175098 -0.0677766 0)
(-0.164343 -0.075584 0)
(-0.152404 -0.0829299 0)
(-0.139353 -0.0897502 0)
(-0.12527 -0.0959802 0)
(-0.110249 -0.101546 0)
(-0.0943961 -0.106329 0)
(-0.0778427 -0.110059 0)
(-0.0607783 -0.112015 0)
(-0.0435392 -0.110385 0)
(-0.0268587 -0.101308 0)
(-0.0121075 -0.0783659 0)
(-0.0020585 -0.0342778 0)
(-5.09465e-267 0.000299584 0)
(-0.0122673 0.0692774 0)
(-0.0241825 0.106237 0)
(-0.0396486 0.122557 0)
(-0.0563513 0.127242 0)
(-0.0733761 0.126199 0)
(-0.0901165 0.122507 0)
(-0.106285 0.117484 0)
(-0.12172 0.11163 0)
(-0.136318 0.105122 0)
(-0.149998 0.0980382 0)
(-0.162693 0.0904225 0)
(-0.174338 0.082313 0)
(-0.184875 0.0737468 0)
(-0.194248 0.0647622 0)
(-0.202406 0.0553992 0)
(-0.209304 0.0457001 0)
(-0.214897 0.0357094 0)
(-0.21915 0.0254737 0)
(-0.22203 0.0150423 0)
(-0.223509 0.00446697 0)
(-0.223567 -0.00619763 0)
(-0.222188 -0.0168939 0)
(-0.219364 -0.0275613 0)
(-0.215094 -0.0381358 0)
(-0.209384 -0.0485508 0)
(-0.202251 -0.0587366 0)
(-0.19372 -0.0686209 0)
(-0.183827 -0.0781299 0)
(-0.172619 -0.0871883 0)
(-0.160156 -0.0957203 0)
(-0.146508 -0.10365 0)
(-0.131758 -0.110902 0)
(-0.116003 -0.117386 0)
(-0.0993564 -0.122965 0)
(-0.0819554 -0.127327 0)
(-0.064002 -0.129639 0)
(-0.0458532 -0.127816 0)
(-0.0282859 -0.117402 0)
(-0.0127487 -0.0909524 0)
(-0.00216647 -0.0399124 0)
(-0.00119834 0.0212402 0)
(-0.0109665 0.0819778 0)
(-0.0242801 0.120465 0)
(-0.0412628 0.138947 0)
(-0.059425 0.14448 0)
(-0.0776048 0.143433 0)
(-0.0952733 0.139284 0)
(-0.112218 0.133581 0)
(-0.128335 0.126919 0)
(-0.143553 0.119518 0)
(-0.157807 0.111468 0)
(-0.171036 0.10282 0)
(-0.183178 0.0936172 0)
(-0.194172 0.0838997 0)
(-0.203963 0.0737095 0)
(-0.212497 0.0630908 0)
(-0.219728 0.0520902 0)
(-0.225609 0.0407566 0)
(-0.230103 0.0291413 0)
(-0.233173 0.0172987 0)
(-0.23479 0.00528569 0)
(-0.234929 -0.00683717 0)
(-0.233572 -0.019006 0)
(-0.230705 -0.0311531 0)
(-0.226324 -0.043207 0)
(-0.220431 -0.0550921 0)
(-0.213039 -0.0667295 0)
(-0.204169 -0.0780364 0)
(-0.193854 -0.0889279 0)
(-0.18214 -0.0993164 0)
(-0.169084 -0.109114 0)
(-0.154759 -0.118231 0)
(-0.139249 -0.126578 0)
(-0.122655 -0.134051 0)
(-0.105097 -0.14049 0)
(-0.0867199 -0.145535 0)
(-0.0677404 -0.148239 0)
(-0.04854 -0.146221 0)
(-0.0299456 -0.1344 0)
(-0.0134962 -0.104247 0)
(-0.00229286 -0.0458628 0)
(0.000603546 0.0237604 0)
(-0.00261371 0.0936774 0)
(-0.0212893 0.137598 0)
(-0.0417792 0.157987 0)
(-0.062487 0.163651 0)
(-0.0822962 0.162021 0)
(-0.10111 0.157065 0)
(-0.118944 0.150486 0)
(-0.135819 0.142909 0)
(-0.151722 0.134547 0)
(-0.166612 0.125482 0)
(-0.180433 0.115761 0)
(-0.193127 0.105424 0)
(-0.204631 0.0945146 0)
(-0.21489 0.0830765 0)
(-0.223847 0.0711581 0)
(-0.231452 0.0588098 0)
(-0.237661 0.0460849 0)
(-0.242429 0.033039 0)
(-0.24572 0.0197311 0)
(-0.247501 0.00622313 0)
(-0.247743 -0.0074192 0)
(-0.246422 -0.021126 0)
(-0.243521 -0.034823 0)
(-0.239031 -0.0484308 0)
(-0.232947 -0.0618655 0)
(-0.225278 -0.0750381 0)
(-0.216041 -0.0878552 0)
(-0.205264 -0.100219 0)
(-0.19299 -0.112031 0)
(-0.179274 -0.123186 0)
(-0.16419 -0.133583 0)
(-0.147823 -0.143114 0)
(-0.13028 -0.151659 0)
(-0.111684 -0.159032 0)
(-0.0921937 -0.164824 0)
(-0.0720401 -0.16796 0)
(-0.0516335 -0.16575 0)
(-0.0318589 -0.152443 0)
(-0.0143594 -0.11836 0)
(-0.00243919 -0.0521799 0)
(4.55897e-282 0.000150887 0)
(-0.00289028 0.10377 0)
(-0.0238127 0.157851 0)
(-0.0459199 0.179705 0)
(-0.0677916 0.184674 0)
(-0.0885017 0.181883 0)
(-0.108103 0.17581 0)
(-0.126682 0.168201 0)
(-0.144281 0.159627 0)
(-0.160888 0.150254 0)
(-0.176455 0.140133 0)
(-0.190923 0.129299 0)
(-0.204223 0.117788 0)
(-0.216292 0.105643 0)
(-0.227068 0.0929116 0)
(-0.236495 0.0796457 0)
(-0.24452 0.0659 0)
(-0.251095 0.0517316 0)
(-0.256176 0.0372005 0)
(-0.259722 0.0223693 0)
(-0.261696 0.00730445 0)
(-0.262065 -0.00792375 0)
(-0.260801 -0.0232401 0)
(-0.257881 -0.0385638 0)
(-0.253287 -0.0538086 0)
(-0.247012 -0.0688815 0)
(-0.239054 -0.0836838 0)
(-0.229426 -0.0981105 0)
(-0.21815 -0.112051 0)
(-0.205265 -0.125392 0)
(-0.190823 -0.138013 0)
(-0.174897 -0.149796 0)
(-0.157573 -0.160616 0)
(-0.138963 -0.170332 0)
(-0.119197 -0.178729 0)
(-0.0984442 -0.185343 0)
(-0.0769556 -0.188963 0)
(-0.0551738 -0.186565 0)
(-0.034051 -0.171683 0)
(-0.0153499 -0.133414 0)
(-0.00260741 -0.0589193 0)
(-6.31497e-248 2.16081e-165 0)
(-0.0138929 0.118797 0)
(-0.0333399 0.179049 0)
(-0.0546256 0.201669 0)
(-0.0757782 0.205964 0)
(-0.0964062 0.202177 0)
(-0.116322 0.195129 0)
(-0.135461 0.186573 0)
(-0.153741 0.177041 0)
(-0.171074 0.166661 0)
(-0.187369 0.155468 0)
(-0.202539 0.143489 0)
(-0.216505 0.130764 0)
(-0.229194 0.117338 0)
(-0.24054 0.103264 0)
(-0.250485 0.0885997 0)
(-0.258974 0.0734035 0)
(-0.265958 0.0577366 0)
(-0.271391 0.0416623 0)
(-0.275228 0.0252466 0)
(-0.27743 0.00855916 0)
(-0.277957 -0.00832572 0)
(-0.276776 -0.0253283 0)
(-0.273857 -0.0423625 0)
(-0.269175 -0.059335 0)
(-0.262712 -0.0761445 0)
(-0.254461 -0.0926821 0)
(-0.244425 -0.108831 0)
(-0.232619 -0.124466 0)
(-0.219075 -0.139458 0)
(-0.203843 -0.153672 0)
(-0.18699 -0.166966 0)
(-0.168607 -0.179198 0)
(-0.148806 -0.190201 0)
(-0.127727 -0.19973 0)
(-0.105552 -0.207257 0)
(-0.0825526 -0.211422 0)
(-0.0592096 -0.208844 0)
(-0.0365525 -0.192291 0)
(-0.0164816 -0.149544 0)
(-0.00279991 -0.0661426 0)
(-8.64323e-165 0.00195415 0)
(-0.0298311 0.134535 0)
(-0.0458364 0.197979 0)
(-0.0652322 0.221796 0)
(-0.0849795 0.226299 0)
(-0.105236 0.222298 0)
(-0.125383 0.214766 0)
(-0.145104 0.205532 0)
(-0.164128 0.195165 0)
(-0.182265 0.183818 0)
(-0.199366 0.171546 0)
(-0.215313 0.158393 0)
(-0.23001 0.14441 0)
(-0.243378 0.129653 0)
(-0.255349 0.114185 0)
(-0.265861 0.0980675 0)
(-0.274861 0.0813648 0)
(-0.282297 0.0641416 0)
(-0.288124 0.0464639 0)
(-0.292293 0.0284 0)
(-0.29476 0.0100218 0)
(-0.295483 -0.00859398 0)
(-0.294418 -0.0273643 0)
(-0.291529 -0.0461985 0)
(-0.28678 -0.064997 0)
(-0.280145 -0.0836509 0)
(-0.271605 -0.102041 0)
(-0.261151 -0.120038 0)
(-0.248791 -0.137502 0)
(-0.234548 -0.154287 0)
(-0.218463 -0.170236 0)
(-0.200601 -0.185189 0)
(-0.181052 -0.198976 0)
(-0.159931 -0.211406 0)
(-0.137386 -0.222194 0)
(-0.113614 -0.230743 0)
(-0.0889101 -0.235531 0)
(-0.0637997 -0.232788 0)
(-0.0394009 -0.214454 0)
(-0.017772 -0.1669 0)
(-0.0030197 -0.0739184 0)
(-0.00781659 0.0543125 0)
(-0.036895 0.158144 0)
(-0.0535258 0.216328 0)
(-0.0729127 0.240733 0)
(-0.0929252 0.246098 0)
(-0.113754 0.242537 0)
(-0.134702 0.234937 0)
(-0.155349 0.225243 0)
(-0.175343 0.21413 0)
(-0.194442 0.201833 0)
(-0.212465 0.188459 0)
(-0.229279 0.174088 0)
(-0.244783 0.158793 0)
(-0.258893 0.142649 0)
(-0.271541 0.125726 0)
(-0.282669 0.108097 0)
(-0.292225 0.0898289 0)
(-0.300159 0.0709901 0)
(-0.306423 0.0516479 0)
(-0.310969 0.0318713 0)
(-0.313746 0.0117327 0)
(-0.314707 -0.00869033 0)
(-0.313801 -0.0293131 0)
(-0.31098 -0.0500417 0)
(-0.306198 -0.0707718 0)
(-0.299416 -0.0913872 0)
(-0.290601 -0.111759 0)
(-0.279733 -0.131745 0)
(-0.266804 -0.15119 0)
(-0.251827 -0.169927 0)
(-0.234833 -0.18778 0)
(-0.215882 -0.204561 0)
(-0.195059 -0.220074 0)
(-0.172482 -0.234095 0)
(-0.148307 -0.246295 0)
(-0.122747 -0.255999 0)
(-0.0961243 -0.261504 0)
(-0.0690159 -0.258618 0)
(-0.0426421 -0.238385 0)
(-0.0192421 -0.185652 0)
(-0.00327046 -0.0823241 0)
(-0.00727676 0.0698187 0)
(-0.0316933 0.177389 0)
(-0.0534457 0.236171 0)
(-0.0761171 0.261341 0)
(-0.0987301 0.267337 0)
(-0.121504 0.264053 0)
(-0.144063 0.256304 0)
(-0.166114 0.246094 0)
(-0.187376 0.234179 0)
(-0.20763 0.220867 0)
(-0.226712 0.206322 0)
(-0.244493 0.190661 0)
(-0.260878 0.173983 0)
(-0.27579 0.156381 0)
(-0.289168 0.137939 0)
(-0.300959 0.118734 0)
(-0.311116 0.0988408 0)
(-0.319591 0.0783268 0)
(-0.326338 0.0572596 0)
(-0.331308 0.0357067 0)
(-0.334446 0.0137387 0)
(-0.335696 -0.0085683 0)
(-0.335 -0.0311299 0)
(-0.332297 -0.0538513 0)
(-0.327529 -0.0766245 0)
(-0.320639 -0.0993275 0)
(-0.311579 -0.121822 0)
(-0.300312 -0.143953 0)
(-0.286813 -0.165548 0)
(-0.271079 -0.186422 0)
(-0.253128 -0.20637 0)
(-0.23301 -0.225179 0)
(-0.210804 -0.242619 0)
(-0.18663 -0.258426 0)
(-0.160649 -0.272222 0)
(-0.133091 -0.28324 0)
(-0.104312 -0.289581 0)
(-0.0749461 -0.286584 0)
(-0.0463322 -0.264324 0)
(-0.0209183 -0.205992 0)
(-0.00355676 -0.0914482 0)
(-0.00574547 0.0854804 0)
(-0.027953 0.199724 0)
(-0.0526629 0.260169 0)
(-0.0784746 0.285439 0)
(-0.104044 0.291289 0)
(-0.129246 0.287693 0)
(-0.153829 0.279415 0)
(-0.177599 0.268439 0)
(-0.200357 0.255546 0)
(-0.221934 0.241084 0)
(-0.242195 0.225252 0)
(-0.261032 0.208198 0)
(-0.278366 0.190046 0)
(-0.294134 0.170905 0)
(-0.308286 0.150869 0)
(-0.32078 0.130024 0)
(-0.331577 0.108444 0)
(-0.340636 0.0861964 0)
(-0.347913 0.0633466 0)
(-0.353358 0.0399572 0)
(-0.356913 0.0160938 0)
(-0.358514 -0.00817179 0)
(-0.358091 -0.0327585 0)
(-0.355571 -0.0575727 0)
(-0.350877 -0.0825055 0)
(-0.343936 -0.10743 0)
(-0.334679 -0.1322 0)
(-0.323045 -0.156648 0)
(-0.308991 -0.180585 0)
(-0.292492 -0.203802 0)
(-0.273548 -0.226069 0)
(-0.252194 -0.247137 0)
(-0.228499 -0.266739 0)
(-0.202579 -0.284567 0)
(-0.174605 -0.30018 0)
(-0.14482 -0.312709 0)
(-0.113617 -0.320029 0)
(-0.0816989 -0.316971 0)
(-0.0505412 -0.292546 0)
(-0.0228332 -0.228142 0)
(-0.00388428 -0.101393 0)
(-0.0049244 0.0979921 0)
(-0.0259951 0.22244 0)
(-0.0527836 0.286516 0)
(-0.0813546 0.312423 0)
(-0.109804 0.317941 0)
(-0.137568 0.313663 0)
(-0.16437 0.304509 0)
(-0.190052 0.29249 0)
(-0.214469 0.278401 0)
(-0.237497 0.26261 0)
(-0.259032 0.245343 0)
(-0.278997 0.22677 0)
(-0.297332 0.207036 0)
(-0.313994 0.186263 0)
(-0.328953 0.164556 0)
(-0.34218 0.142002 0)
(-0.353651 0.118676 0)
(-0.363333 0.0946427 0)
(-0.371186 0.0699588 0)
(-0.377161 0.0446791 0)
(-0.381197 0.0188605 0)
(-0.38322 -0.0074335 0)
(-0.383148 -0.0341286 0)
(-0.380891 -0.0611356 0)
(-0.376353 -0.0883471 0)
(-0.369437 -0.115634 0)
(-0.360051 -0.142844 0)
(-0.348107 -0.169798 0)
(-0.333534 -0.19629 0)
(-0.316281 -0.222085 0)
(-0.296324 -0.246924 0)
(-0.273675 -0.270523 0)
(-0.24839 -0.292567 0)
(-0.220577 -0.312694 0)
(-0.190407 -0.330392 0)
(-0.158143 -0.344672 0)
(-0.124217 -0.353156 0)
(-0.089409 -0.350108 0)
(-0.0553562 -0.323371 0)
(-0.0250277 -0.25236 0)
(-0.00426018 -0.112276 0)
(-0.00463061 0.109908 0)
(-0.0257196 0.246205 0)
(-0.0543625 0.315114 0)
(-0.08545 0.342126 0)
(-0.116621 0.347261 0)
(-0.146942 0.342042 0)
(-0.17604 0.331716 0)
(-0.203742 0.318381 0)
(-0.229923 0.30286 0)
(-0.254489 0.28554 0)
(-0.277366 0.266666 0)
(-0.298503 0.246429 0)
(-0.317869 0.22499 0)
(-0.335446 0.202485 0)
(-0.351227 0.179023 0)
(-0.365206 0.154695 0)
(-0.377373 0.129571 0)
(-0.387711 0.103707 0)
(-0.396187 0.0771474 0)
(-0.402751 0.0499343 0)
(-0.407339 0.0221106 0)
(-0.409868 -0.00627309 0)
(-0.410239 -0.0351535 0)
(-0.408345 -0.06445 0)
(-0.404065 -0.0940601 0)
(-0.397277 -0.123856 0)
(-0.387857 -0.153681 0)
(-0.375687 -0.183345 0)
(-0.36066 -0.212626 0)
(-0.342691 -0.241266 0)
(-0.321723 -0.26897 0)
(-0.29774 -0.295413 0)
(-0.270773 -0.320228 0)
(-0.240917 -0.342991 0)
(-0.208339 -0.363101 0)
(-0.173319 -0.379428 0)
(-0.136331 -0.389308 0)
(-0.098246 -0.38637 0)
(-0.0608879 -0.357169 0)
(-0.0275539 -0.278949 0)
(-0.00469356 -0.124239 0)
(-0.00467901 0.121812 0)
(-0.0265853 0.271204 0)
(-0.05725 0.345845 0)
(-0.0908739 0.374388 0)
(-0.124749 0.379172 0)
(-0.157656 0.372843 0)
(-0.189119 0.361102 0)
(-0.21892 0.346196 0)
(-0.24694 0.329001 0)
(-0.273101 0.309934 0)
(-0.297355 0.289262 0)
(-0.319682 0.267199 0)
(-0.340082 0.243922 0)
(-0.358569 0.219576 0)
(-0.375166 0.194279 0)
(-0.389894 0.168117 0)
(-0.402769 0.141152 0)
(-0.413788 0.113426 0)
(-0.422929 0.0849646 0)
(-0.430146 0.0557907 0)
(-0.435368 0.0259268 0)
(-0.438499 -0.00459505 0)
(-0.439427 -0.0357278 0)
(-0.438017 -0.0674038 0)
(-0.434125 -0.0995297 0)
(-0.427597 -0.131983 0)
(-0.418271 -0.164605 0)
(-0.405991 -0.1972 0)
(-0.390609 -0.22953 0)
(-0.371995 -0.261311 0)
(-0.35005 -0.292215 0)
(-0.324718 -0.321868 0)
(-0.295997 -0.349846 0)
(-0.263954 -0.375646 0)
(-0.22875 -0.398568 0)
(-0.190671 -0.417314 0)
(-0.150238 -0.428886 0)
(-0.108426 -0.426202 0)
(-0.0672778 -0.394381 0)
(-0.0304789 -0.30827 0)
(-0.00519618 -0.137448 0)
(-0.00492977 0.134265 0)
(-0.0282482 0.297881 0)
(-0.0612707 0.378935 0)
(-0.0976384 0.409304 0)
(-0.134342 0.413737 0)
(-0.169943 0.406136 0)
(-0.203862 0.392741 0)
(-0.235841 0.376001 0)
(-0.265754 0.356875 0)
(-0.293538 0.335823 0)
(-0.319175 0.313144 0)
(-0.342676 0.289076 0)
(-0.36408 0.263815 0)
(-0.383441 0.23752 0)
(-0.400819 0.210309 0)
(-0.416272 0.182263 0)
(-0.429846 0.153431 0)
(-0.441562 0.12383 0)
(-0.45141 0.0934636 0)
(-0.459346 0.0623232 0)
(-0.465293 0.0304044 0)
(-0.469143 -0.00228625 0)
(-0.470759 -0.0357236 0)
(-0.469983 -0.0698581 0)
(-0.466639 -0.104611 0)
(-0.460535 -0.139868 0)
(-0.451471 -0.175476 0)
(-0.43924 -0.211236 0)
(-0.423645 -0.246897 0)
(-0.404502 -0.282152 0)
(-0.381656 -0.316635 0)
(-0.354997 -0.349922 0)
(-0.324476 -0.381523 0)
(-0.29012 -0.410847 0)
(-0.252066 -0.437072 0)
(-0.210603 -0.4587 0)
(-0.166292 -0.472349 0)
(-0.120227 -0.470124 0)
(-0.0747108 -0.435533 0)
(-0.0338906 -0.340758 0)
(-0.00578345 -0.152108 0)
(-0.0053194 0.147604 0)
(-0.0305317 0.32664 0)
(-0.066335 0.414705 0)
(-0.105783 0.447098 0)
(-0.145561 0.45112 0)
(-0.184036 0.442045 0)
(-0.220539 0.426725 0)
(-0.254777 0.407859 0)
(-0.286621 0.386513 0)
(-0.31603 0.363209 0)
(-0.343019 0.338288 0)
(-0.36764 0.312019 0)
(-0.389979 0.284621 0)
(-0.410137 0.256263 0)
(-0.428226 0.227067 0)
(-0.444349 0.197105 0)
(-0.458592 0.166401 0)
(-0.471006 0.134945 0)
(-0.481598 0.102698 0)
(-0.490327 0.0696151 0)
(-0.497106 0.0356536 0)
(-0.501808 0.000786996 0)
(-0.504271 -0.0349876 0)
(-0.504307 -0.0716439 0)
(-0.501705 -0.109122 0)
(-0.496232 -0.147325 0)
(-0.48764 -0.18611 0)
(-0.475669 -0.225279 0)
(-0.460057 -0.264574 0)
(-0.440554 -0.303668 0)
(-0.416936 -0.342159 0)
(-0.389023 -0.37957 0)
(-0.3567 -0.415337 0)
(-0.319935 -0.44877 0)
(-0.278819 -0.478903 0)
(-0.233624 -0.504002 0)
(-0.184949 -0.52023 0)
(-0.134015 -0.518755 0)
(-0.0834321 -0.481264 0)
(-0.0379067 -0.376947 0)
(-0.00647603 -0.168467 0)
(-0.00582485 0.162108 0)
(-0.0333883 0.357916 0)
(-0.0724708 0.453574 0)
(-0.115438 0.488105 0)
(-0.15863 0.491569 0)
(-0.200222 0.480743 0)
(-0.239465 0.463165 0)
(-0.27604 0.441823 0)
(-0.309833 0.417923 0)
(-0.340833 0.392062 0)
(-0.369101 0.364634 0)
(-0.394742 0.335947 0)
(-0.417897 0.306244 0)
(-0.438728 0.275712 0)
(-0.45741 0.244473 0)
(-0.474108 0.212584 0)
(-0.488961 0.18004 0)
(-0.502059 0.146783 0)
(-0.51343 0.112723 0)
(-0.523033 0.0777605 0)
(-0.530767 0.0418029 0)
(-0.536479 0.0047824 0)
(-0.539976 -0.0333374 0)
(-0.541036 -0.0725582 0)
(-0.539408 -0.112845 0)
(-0.534817 -0.154123 0)
(-0.526963 -0.196268 0)
(-0.51552 -0.239096 0)
(-0.500153 -0.282348 0)
(-0.480529 -0.32568 0)
(-0.456339 -0.368658 0)
(-0.427314 -0.410751 0)
(-0.393249 -0.451319 0)
(-0.354028 -0.489564 0)
(-0.309666 -0.524353 0)
(-0.260388 -0.553671 0)
(-0.206806 -0.573142 0)
(-0.150277 -0.57284 0)
(-0.093775 -0.532359 0)
(-0.0426888 -0.417504 0)
(-0.00730231 -0.186839 0)
(-0.00644893 0.178047 0)
(-0.0368611 0.392191 0)
(-0.0798152 0.496043 0)
(-0.126843 0.532749 0)
(-0.173871 0.535402 0)
(-0.218872 0.522444 0)
(-0.261025 0.502178 0)
(-0.300004 0.477933 0)
(-0.335728 0.451079 0)
(-0.36824 0.422306 0)
(-0.397662 0.392072 0)
(-0.424165 0.360724 0)
(-0.447957 0.328538 0)
(-0.469275 0.29572 0)
(-0.488373 0.262396 0)
(-0.5055 0.228604 0)
(-0.520867 0.194295 0)
(-0.534615 0.159348 0)
(-0.546797 0.123598 0)
(-0.55737 0.0868681 0)
(-0.566206 0.0490035 0)
(-0.573116 0.00988586 0)
(-0.577866 -0.0305583 0)
(-0.580195 -0.0723605 0)
(-0.579816 -0.115515 0)
(-0.576408 -0.159976 0)
(-0.569615 -0.205654 0)
(-0.559039 -0.252387 0)
(-0.544256 -0.299928 0)
(-0.524836 -0.347927 0)
(-0.500361 -0.39592 0)
(-0.470455 -0.443327 0)
(-0.4348 -0.489432 0)
(-0.393159 -0.533325 0)
(-0.345428 -0.573693 0)
(-0.291733 -0.60819 0)
(-0.232657 -0.631793 0)
(-0.169681 -0.633278 0)
(-0.106203 -0.5898 0)
(-0.0484645 -0.463275 0)
(-0.00830245 -0.207629 0)
(-0.00721247 0.195725 0)
(-0.0410687 0.430034 0)
(-0.0886191 0.542717 0)
(-0.140367 0.581545 0)
(-0.191738 0.583 0)
(-0.240477 0.567384 0)
(-0.285703 0.543875 0)
(-0.327117 0.516197 0)
(-0.364701 0.48591 0)
(-0.398583 0.453815 0)
(-0.428969 0.420431 0)
(-0.456108 0.386152 0)
(-0.480286 0.351287 0)
(-0.501826 0.316072 0)
(-0.521087 0.280644 0)
(-0.538429 0.245018 0)
(-0.554163 0.209086 0)
(-0.568504 0.172633 0)
(-0.581533 0.135388 0)
(-0.593195 0.097069 0)
(-0.603315 0.0574367 0)
(-0.611647 0.0163166 0)
(-0.617905 -0.0264002 0)
(-0.621786 -0.0707715 0)
(-0.622969 -0.11682 0)
(-0.621098 -0.164543 0)
(-0.615757 -0.213898 0)
(-0.606468 -0.264769 0)
(-0.592702 -0.316937 0)
(-0.573909 -0.370053 0)
(-0.549545 -0.423634 0)
(-0.519107 -0.477054 0)
(-0.482136 -0.529532 0)
(-0.438239 -0.580059 0)
(-0.38713 -0.627136 0)
(-0.328752 -0.668044 0)
(-0.263575 -0.696986 0)
(-0.193157 -0.701168 0)
(-0.121383 -0.654835 0)
(-0.0555661 -0.515366 0)
(-0.00953533 -0.231364 0)
(-0.00815409 0.215518 0)
(-0.0462108 0.472153 0)
(-0.0992695 0.59434 0)
(-0.156547 0.635114 0)
(-0.212852 0.634794 0)
(-0.265678 0.615807 0)
(-0.31411 0.588336 0)
(-0.35792 0.556565 0)
(-0.397213 0.522278 0)
(-0.432241 0.486387 0)
(-0.463321 0.449469 0)
(-0.490793 0.411956 0)
(-0.515019 0.374194 0)
(-0.536419 0.336468 0)
(-0.555485 0.298941 0)
(-0.572734 0.261611 0)
(-0.588624 0.224286 0)
(-0.603474 0.18662 0)
(-0.617399 0.148178 0)
(-0.630307 0.108528 0)
(-0.641944 0.0673247 0)
(-0.651971 0.0243334 0)
(-0.660032 -0.0205769 0)
(-0.66578 -0.0674746 0)
(-0.668875 -0.116406 0)
(-0.668943 -0.167421 0)
(-0.66552 -0.220555 0)
(-0.658033 -0.275768 0)
(-0.645825 -0.332889 0)
(-0.6282 -0.391587 0)
(-0.60447 -0.451361 0)
(-0.573987 -0.511548 0)
(-0.536142 -0.571323 0)
(-0.490345 -0.629614 0)
(-0.436045 -0.684767 0)
(-0.372874 -0.733671 0)
(-0.301033 -0.769604 0)
(-0.22204 -0.777847 0)
(-0.140299 -0.729085 0)
(-0.0644967 -0.575256 0)
(-0.0110909 -0.258767 0)
(-0.00933551 0.237914 0)
(-0.0525959 0.51945 0)
(-0.112341 0.651844 0)
(-0.17615 0.694197 0)
(-0.238069 0.691266 0)
(-0.295319 0.667936 0)
(-0.347008 0.635571 0)
(-0.393062 0.598899 0)
(-0.433788 0.559949 0)
(-0.46963 0.519735 0)
(-0.501046 0.478862 0)
(-0.528464 0.437777 0)
(-0.552305 0.396863 0)
(-0.573079 0.356492 0)
(-0.591452 0.316899 0)
(-0.608169 0.278076 0)
(-0.623914 0.23972 0)
(-0.639155 0.201282 0)
(-0.654054 0.162085 0)
(-0.66844 0.121468 0)
(-0.681907 0.0789487 0)
(-0.693969 0.0342427 0)
(-0.704164 -0.0127679 0)
(-0.712112 -0.0621242 0)
(-0.717489 -0.113875 0)
(-0.719946 -0.168142 0)
(-0.718987 -0.225088 0)
(-0.713928 -0.284795 0)
(-0.703948 -0.347176 0)
(-0.688169 -0.411926 0)
(-0.665732 -0.478519 0)
(-0.635851 -0.546254 0)
(-0.59778 -0.614298 0)
(-0.550713 -0.681596 0)
(-0.49374 -0.746436 0)
(-0.425982 -0.805352 0)
(-0.347093 -0.850559 0)
(-0.258296 -0.864942 0)
(-0.164463 -0.814691 0)
(-0.0760503 -0.644988 0)
(-0.0131128 -0.290851 0)
(-0.010854 0.263574 0)
(-0.0606964 0.573123 0)
(-0.128682 0.716412 0)
(-0.200272 0.759684 0)
(-0.268561 0.75292 0)
(-0.330508 0.723923 0)
(-0.385346 0.685466 0)
(-0.433299 0.642914 0)
(-0.475004 0.598556 0)
(-0.511191 0.553462 0)
(-0.542494 0.508198 0)
(-0.569405 0.463166 0)
(-0.592331 0.418779 0)
(-0.611835 0.37558 0)
(-0.628816 0.333969 0)
(-0.644367 0.293972 0)
(-0.659528 0.255136 0)
(-0.675011 0.216597 0)
(-0.691026 0.17729 0)
(-0.707246 0.136205 0)
(-0.722989 0.0926776 0)
(-0.737515 0.046409 0)
(-0.750214 -0.00262801 0)
(-0.760685 -0.0543658 0)
(-0.7687 -0.108811 0)
(-0.774023 -0.16618 0)
(-0.776164 -0.226857 0)
(-0.774297 -0.291131 0)
(-0.767372 -0.359047 0)
(-0.754262 -0.430319 0)
(-0.733914 -0.504368 0)
(-0.705437 -0.580417 0)
(-0.668029 -0.657667 0)
(-0.620706 -0.735232 0)
(-0.562104 -0.811561 0)
(-0.490548 -0.883007 0)
(-0.404679 -0.940654 0)
(-0.304889 -0.964393 0)
(-0.19627 -0.914536 0)
(-0.0915335 -0.727486 0)
(-0.015842 -0.329112 0)
(-0.0128664 0.293431 0)
(-0.0712483 0.634788 0)
(-0.149567 0.789571 0)
(-0.230491 0.832622 0)
(-0.305943 0.820244 0)
(-0.372691 0.783772 0)
(-0.430288 0.737691 0)
(-0.479483 0.688106 0)
(-0.521451 0.637551 0)
(-0.557347 0.587054 0)
(-0.588017 0.53699 0)
(-0.613945 0.487602 0)
(-0.635351 0.439297 0)
(-0.652743 0.392963 0)