/*--------------------------------*- C++ -*----------------------------------*\
| =========                 |                                                 |
| \\      /  F ield         | OpenFOAM: The Open Source CFD Toolbox           |
|  \\    /   O peration     | Version:  4.1                                   |
|   \\  /    A nd           | Web:      www.OpenFOAM.org                      |
|    \\/     M anipulation  |                                                 |
\*---------------------------------------------------------------------------*/
FoamFile
{
    version     2.0;
    format      ascii;
    class       volScalarField;
    location    "0.0062";
    object      p;
}
// * * * * * * * * * * * * * * * * * * * * * * * * * * * * * * * * * * * * * //

dimensions      [1 -1 -2 0 0 0 0];

internalField   nonuniform List<scalar> 
441
(
100000
99999.9
99999.7
99999.9
99999.9
99999.5
99999.9
100000
100000
100001
100001
100001
100001
100001
100001
100001
100001
100001
100001
100001
100001
100000
100000
100000
100000
100000
100000
100000
100000
100000
100000
100000
100000
100000
100000
100000
100001
100000
100001
100000
100001
100000
100000
99999.9
100000
99999.9
100000
99999.9
100000
100000
100000
100001
100001
100001
100001
100001
100001
100001
100001
100001
100001
100001
100000
100000
100000
100000
100000
100000
100000
100000
100000
100000
100000
100000
100000
100000
100001
100001
100001
100001
100001
100001
100001
100000
100000
99999.7
99999.9
99999.8
99999.9
99999.9
100000
100000
100000
100000
100000
100001
100001
100001
100001
100001
100001
100001
100001
100001
100001
99999.2
99999.7
99999.6
99999.7
99999.8
99999.9
100000
100000
100000
100000
100000
100000
100001
100001
100001
100001
100001
100001
100001
100001
100000
99998.9
99999.2
99999.2
99999.3
99999.4
99999.6
99999.7
99999.9
100000
100000
100000
100001
100001
100001
100001
100001
100001
100001
100001
100001
100000
99999.1
99999.1
99999.1
99999.2
99999.3
99999.4
99999.6
99999.8
99999.9
100000
100000
100001
100001
100001
100001
100001
100001
100001
100001
100002
100001
99998.5
99998.4
99998.5
99998.6
99998.8
99999
99999.2
99999.5
99999.7
100000
100000
100001
100001
100001
100001
100002
100002
100002
100002
100002
100001
99998.2
99998.2
99998.2
99998.3
99998.4
99998.7
99998.9
99999.2
99999.5
99999.9
100000
100001
100001
100001
100001
100002
100002
100002
100002
100002
100001
99997.3
99997.2
99997.3
99997.5
99997.7
99998
99998.3
99998.8
99999.2
99999.7
100000
100001
100001
100002
100002
100002
100003
100003
100003
100003
100003
99996.9
99996.8
99996.9
99997.1
99997.2
99997.6
99997.9
99998.4
99998.8
99999.4
100000
100001
100001
100002
100002
100003
100003
100003
100003
100004
100003
99995.5
99995.4
99995.4
99995.9
99996
99996.6
99997
99997.7
99998.3
99999
99999.8
100001
100002
100002
100003
100004
100004
100005
100004
100005
100002
99995.1
99995
99994.9
99995.4
99995.5
99996.1
99996.4
99997.2
99997.8
99998.6
99999.5
100000
100001
100002
100003
100004
100005
100005
100005
100006
100004
99992.6
99992.9
99992.7
99993.6
99993.7
99994.7
99995.2
99996.2
99997
99998
99999.2
100000
100002
100003
100004
100005
100007
100007
100008
100008
100004
99992.5
99992.7
99992.2
99993.1
99993
99994.1
99994.4
99995.5
99996.4
99997.4
99998.7
99999.7
100001
100002
100004
100005
100007
100007
100008
100008
100001
99987.7
99989.1
99988.4
99990.5
99990.4
99992.3
99992.8
99994.4
99995.4
99996.8
99998.3
99999.4
100001
100002
100005
100006
100010
100009
100017
100011
100028
99988.1
99989.6
99988.2
99990.2
99989.7
99991.6
99992
99993.6
99994.7
99996.1
99997.6
99998.7
100001
100002
100004
100005
100009
100009
100016
100016
100027
99976.5
99983.8
99981.8
99986.9
99986.5
99989.7
99990.4
99992.6
99993.9
99995.5
99997.3
99998.5
100001
100002
100005
100006
100012
100012
100023
100025
100040
99977.2
99985.8
99982.9
99987.2
99986.5
99989.5
99990.1
99992.3
99993.6
99995.2
99997
99998
100000
100001
100004
100004
100010
100010
100022
100025
100045
99935.5
99978.9
99976.9
99987.1
99986.1
99989.9
99990.4
99992.6
99993.8
99995.4
99997.2
99998.3
100001
100001
100005
100006
100013
100015
100035
100043
100100
)
;

boundaryField
{
    movingWall
    {
        type            zeroGradient;
    }
    fixedWalls
    {
        type            zeroGradient;
    }
    frontAndBack
    {
        type            empty;
    }
}


// ************************************************************************* //
