/*--------------------------------*- C++ -*----------------------------------*\
| =========                 |                                                 |
| \\      /  F ield         | OpenFOAM: The Open Source CFD Toolbox           |
|  \\    /   O peration     | Version:  4.1                                   |
|   \\  /    A nd           | Web:      www.OpenFOAM.org                      |
|    \\/     M anipulation  |                                                 |
\*---------------------------------------------------------------------------*/
FoamFile
{
    version     2.0;
    format      ascii;
    class       volVectorField;
    location    "0.198";
    object      U;
}
// * * * * * * * * * * * * * * * * * * * * * * * * * * * * * * * * * * * * * //

dimensions      [0 1 -1 0 0 0 0];

internalField   nonuniform List<vector> 
1600
(
(1.464e-05 -1.62063e-05 0)
(1.27455e-05 3.47188e-05 0)
(-8.53903e-05 0.000127632 0)
(-0.000301824 0.000235138 0)
(-0.000639913 0.000341004 0)
(-0.00109047 0.000435959 0)
(-0.00163727 0.000514808 0)
(-0.00226028 0.000574915 0)
(-0.0029378 0.000615261 0)
(-0.00364777 0.000635877 0)
(-0.00436868 0.000637466 0)
(-0.00508011 0.000621171 0)
(-0.00576316 0.000588414 0)
(-0.00640059 0.000540797 0)
(-0.00697706 0.000480039 0)
(-0.00747917 0.000407938 0)
(-0.00789554 0.000326351 0)
(-0.00821687 0.000237187 0)
(-0.00843598 0.00014241 0)
(-0.00854785 4.40343e-05 0)
(-0.0085497 -5.58631e-05 0)
(-0.00844103 -0.000155146 0)
(-0.00822367 -0.000251621 0)
(-0.00790185 -0.000343046 0)
(-0.00748224 -0.000427148 0)
(-0.00697397 -0.00050165 0)
(-0.00638862 -0.000564312 0)
(-0.00574017 -0.000612972 0)
(-0.00504492 -0.00064562 0)
(-0.00432127 -0.000660467 0)
(-0.00358946 -0.000656052 0)
(-0.00287123 -0.00063136 0)
(-0.00218923 -0.000586 0)
(-0.0015663 -0.000520428 0)
(-0.00102445 -0.000436296 0)
(-0.000583345 -0.00033697 0)
(-0.000258136 -0.00022838 0)
(-5.62885e-05 -0.000120399 0)
(2.77594e-05 -2.94312e-05 0)
(1.82203e-05 1.83491e-05 0)
(-3.87118e-05 -1.69286e-05 0)
(-0.000223571 0.000212896 0)
(-0.000652654 0.000599172 0)
(-0.00137307 0.00103892 0)
(-0.00239269 0.00147037 0)
(-0.00369028 0.001857 0)
(-0.00522706 0.0021779 0)
(-0.00695381 0.00242218 0)
(-0.00881603 0.00258544 0)
(-0.0107574 0.00266757 0)
(-0.0127223 0.00267128 0)
(-0.0146572 0.00260111 0)
(-0.0165122 0.00246285 0)
(-0.0182416 0.00226305 0)
(-0.0198042 0.00200878 0)
(-0.0211642 0.00170749 0)
(-0.022291 0.00136689 0)
(-0.0231597 0.000994913 0)
(-0.0237509 0.000599714 0)
(-0.0240515 0.000189675 0)
(-0.024054 -0.000226587 0)
(-0.0237573 -0.000640217 0)
(-0.0231667 -0.00104214 0)
(-0.0222937 -0.00142308 0)
(-0.0211565 -0.00177368 0)
(-0.0197797 -0.00208457 0)
(-0.0181944 -0.00234652 0)
(-0.016438 -0.00255069 0)
(-0.0145536 -0.00268884 0)
(-0.0125898 -0.00275367 0)
(-0.0105996 -0.00273925 0)
(-0.0086395 -0.0026415 0)
(-0.00676776 -0.00245891 0)
(-0.00504252 -0.00219346 0)
(-0.00351892 -0.00185199 0)
(-0.00224537 -0.00144822 0)
(-0.00125827 -0.00100589 0)
(-0.000574935 -0.00056394 0)
(-0.000182471 -0.000185269 0)
(-2.85451e-05 2.86898e-05 0)
(-0.000134694 7.78852e-05 0)
(-0.000620531 0.000634967 0)
(-0.00147737 0.00143939 0)
(-0.00275707 0.00232501 0)
(-0.00446577 0.00318519 0)
(-0.00657198 0.00395339 0)
(-0.00902004 0.00458986 0)
(-0.011739 0.00507294 0)
(-0.0146496 0.00539329 0)
(-0.0176692 0.00554999 0)
(-0.0207151 0.00554781 0)
(-0.0237077 0.00539543 0)
(-0.026572 0.00510414 0)
(-0.029239 0.00468703 0)
(-0.0316464 0.00415839 0)
(-0.03374 0.00353334 0)
(-0.0354732 0.00282766 0)
(-0.0368081 0.00205765 0)
(-0.0377156 0.0012401 0)
(-0.0381756 0.000392274 0)
(-0.038177 -0.000468091 0)
(-0.0377185 -0.00132278 0)
(-0.0368082 -0.00215317 0)
(-0.035464 -0.00294029 0)
(-0.0337137 -0.00366502 0)
(-0.0315948 -0.00430827 0)
(-0.0291544 -0.00485138 0)
(-0.026449 -0.00527648 0)
(-0.0235436 -0.00556705 0)
(-0.020511 -0.00570859 0)
(-0.0174304 -0.00568946 0)
(-0.0143855 -0.00550191 0)
(-0.0114625 -0.00514343 0)
(-0.00874651 -0.00461855 0)
(-0.00631781 -0.00394131 0)
(-0.00424635 -0.00313875 0)
(-0.0025847 -0.00225621 0)
(-0.00135919 -0.00136507 0)
(-0.000556842 -0.000574933 0)
(-0.000118364 -5.14823e-05 0)
(-0.000249349 0.000292277 0)
(-0.0010882 0.00135531 0)
(-0.00242064 0.00271304 0)
(-0.00428961 0.00415431 0)
(-0.00669137 0.0055349 0)
(-0.00958151 0.00676016 0)
(-0.0128885 0.00777113 0)
(-0.016523 0.00853447 0)
(-0.0203855 0.00903503 0)
(-0.0243723 0.00927062 0)
(-0.0283792 0.00924817 0)
(-0.0323053 0.00898101 0)
(-0.0360556 0.00848697 0)
(-0.039542 0.00778696 0)
(-0.0426855 0.00690406 0)
(-0.0454163 0.00586293 0)
(-0.0476752 0.0046894 0)
(-0.0494137 0.00341025 0)
(-0.0505946 0.00205314 0)
(-0.0511922 0.000646501 0)
(-0.0511927 -0.000780422 0)
(-0.0505944 -0.00219766 0)
(-0.0494079 -0.00357459 0)
(-0.0476564 -0.00488013 0)
(-0.0453755 -0.00608296 0)
(-0.0426131 -0.00715199 0)
(-0.0394295 -0.00805686 0)
(-0.0358965 -0.00876864 0)
(-0.0320968 -0.00926075 0)
(-0.0281225 -0.00951003 0)
(-0.0240738 -0.00949809 0)
(-0.0200563 -0.00921301 0)
(-0.0161783 -0.00865133 0)
(-0.012547 -0.00782081 0)
(-0.00926296 -0.00674387 0)
(-0.00641478 -0.00546236 0)
(-0.00407058 -0.00404402 0)
(-0.00226891 -0.00259152 0)
(-0.00100534 -0.00125486 0)
(-0.000227651 -0.000247004 0)
(-0.000369848 0.000635477 0)
(-0.0015787 0.00239896 0)
(-0.00340407 0.00445419 0)
(-0.00587296 0.00656114 0)
(-0.00896562 0.00854735 0)
(-0.012621 0.0102948 0)
(-0.0167506 0.0117274 0)
(-0.0212475 0.0128007 0)
(-0.0259944 0.0134942 0)
(-0.0308692 0.0138045 0)
(-0.03575 0.0137411 0)
(-0.0405186 0.0133226 0)
(-0.0450632 0.0125743 0)
(-0.0492807 0.0115261 0)
(-0.053078 0.0102112 0)
(-0.0563733 0.00866553 0)
(-0.0590969 0.00692655 0)
(-0.0611918 0.00503342 0)
(-0.0626143 0.00302657 0)
(-0.0633342 0.000947622 0)
(-0.0633354 -0.00116065 0)
(-0.062616 -0.00325442 0)
(-0.0611886 -0.00528898 0)
(-0.0590805 -0.007219 0)
(-0.0563333 -0.00899892 0)
(-0.0530036 -0.0105836 0)
(-0.0491619 -0.011929 0)
(-0.0448924 -0.0129933 0)
(-0.0402918 -0.0137384 0)
(-0.035468 -0.0141311 0)
(-0.0305384 -0.0141451 0)
(-0.0256265 -0.0137638 0)
(-0.0208593 -0.0129823 0)
(-0.0163628 -0.0118117 0)
(-0.0122562 -0.0102829 0)
(-0.00864594 -0.00845206 0)
(-0.00561732 -0.00640803 0)
(-0.00322505 -0.00428078 0)
(-0.00147974 -0.00225233 0)
(-0.000343503 -0.000567962 0)
(-0.000490004 0.00110798 0)
(-0.00206823 0.00377148 0)
(-0.00438673 0.00667352 0)
(-0.00745389 0.00955738 0)
(-0.0112302 0.0122312 0)
(-0.0156349 0.0145594 0)
(-0.0205606 0.0164522 0)
(-0.0258827 0.0178564 0)
(-0.0314664 0.0187471 0)
(-0.0371733 0.0191209 0)
(-0.0428657 0.0189905 0)
(-0.0484107 0.0183808 0)
(-0.0536828 0.0173254 0)
(-0.0585662 0.0158645 0)
(-0.0629566 0.0140428 0)
(-0.0667624 0.0119085 0)
(-0.0699056 0.00951241 0)
(-0.0723223 0.00690756 0)
(-0.0739636 0.00414873 0)
(-0.0747959 0.00129237 0)
(-0.0748011 -0.00160354 0)
(-0.073977 -0.0044796 0)
(-0.0723375 -0.00727529 0)
(-0.0699129 -0.00992927 0)
(-0.0667498 -0.01238 0)
(-0.0629111 -0.0145664 0)
(-0.0584755 -0.0164293 0)
(-0.0535369 -0.0179124 0)
(-0.0482036 -0.0189643 0)
(-0.0425963 -0.0195403 0)
(-0.0368466 -0.0196054 0)
(-0.0310937 -0.019137 0)
(-0.0254811 -0.0181281 0)
(-0.0201522 -0.0165922 0)
(-0.0152445 -0.0145674 0)
(-0.0108831 -0.0121228 0)
(-0.00717251 -0.00936546 0)
(-0.00418704 -0.0064476 0)
(-0.00195634 -0.00357551 0)
(-0.000459717 -0.00101577 0)
(-0.000607198 0.00170655 0)
(-0.00254651 0.00546918 0)
(-0.00535012 0.00936964 0)
(-0.00900743 0.0131429 0)
(-0.0134573 0.0165853 0)
(-0.0185971 0.0195491 0)
(-0.0242991 0.0219355 0)
(-0.0304195 0.0236852 0)
(-0.0368066 0.0247711 0)
(-0.0433059 0.0251915 0)
(-0.0497656 0.0249637 0)
(-0.0560395 0.0241202 0)
(-0.0619904 0.0227041 0)
(-0.0674921 0.0207669 0)
(-0.0724311 0.018366 0)
(-0.0767079 0.0155632 0)
(-0.0802379 0.012424 0)
(-0.0829518 0.00901626 0)
(-0.0847966 0.00541057 0)
(-0.0857358 0.00167946 0)
(-0.0857496 -0.00210257 0)
(-0.0848353 -0.00585921 0)
(-0.0830079 -0.00951273 0)
(-0.0802995 -0.0129844 0)
(-0.0767602 -0.0161951 0)
(-0.0724577 -0.0190667 0)
(-0.0674769 -0.021523 0)
(-0.0619194 -0.0234917 0)
(-0.0559028 -0.0249066 0)
(-0.0495586 -0.0257103 0)
(-0.0430308 -0.0258574 0)
(-0.0364725 -0.0253176 0)
(-0.030043 -0.0240806 0)
(-0.0239025 -0.0221605 0)
(-0.0182072 -0.0196009 0)
(-0.0131023 -0.0164811 0)
(-0.00871364 -0.0129227 0)
(-0.00513774 -0.00909551 0)
(-0.00242542 -0.00522379 0)
(-0.000573796 -0.00158825 0)
(-0.000720771 0.00242677 0)
(-0.0030108 0.0074846 0)
(-0.00628887 0.0125355 0)
(-0.010526 0.0173117 0)
(-0.0156387 0.0216032 0)
(-0.0215013 0.0252561 0)
(-0.027964 0.028166 0)
(-0.0348633 0.0302716 0)
(-0.0420297 0.0315465 0)
(-0.0492931 0.0319925 0)
(-0.056488 0.0316337 0)
(-0.0634563 0.0305116 0)
(-0.0700504 0.0286803 0)
(-0.0761355 0.026204 0)
(-0.0815903 0.0231538 0)
(-0.0863092 0.0196064 0)
(-0.0902022 0.0156427 0)
(-0.093196 0.0113469 0)
(-0.0952343 0.00680597 0)
(-0.0962783 0.00210961 0)
(-0.0963066 -0.00265018 0)
(-0.0953161 -0.00737924 0)
(-0.0933217 -0.0119816 0)
(-0.0903569 -0.0163599 0)
(-0.086474 -0.0204166 0)
(-0.0817438 -0.0240547 0)
(-0.0762558 -0.0271799 0)
(-0.0701177 -0.0297023 0)
(-0.0634543 -0.0315395 0)
(-0.0564066 -0.0326194 0)
(-0.0491296 -0.0328842 0)
(-0.0417894 -0.0322944 0)
(-0.0345604 -0.0308341 0)
(-0.0276203 -0.0285156 0)
(-0.0211448 -0.0253853 0)
(-0.0153006 -0.0215299 0)
(-0.0102369 -0.0170815 0)
(-0.00607407 -0.0122235 0)
(-0.00288538 -0.00719349 0)
(-0.000685341 -0.00228229 0)
(-0.000831101 0.0032644 0)
(-0.00346246 0.00980981 0)
(-0.00720496 0.0161627 0)
(-0.0120122 0.0220557 0)
(-0.0177782 0.0272772 0)
(-0.0243531 0.0316713 0)
(-0.0315645 0.035133 0)
(-0.0392279 0.0376022 0)
(-0.0471556 0.0390564 0)
(-0.055162 0.0395039 0)
(-0.063068 0.038978 0)
(-0.0707047 0.0375308 0)
(-0.0779151 0.0352293 0)
(-0.0845568 0.0321517 0)
(-0.0905026 0.0283842 0)
(-0.0956416 0.0240193 0)
(-0.09988 0.0191543 0)
(-0.103141 0.0138902 0)
(-0.105367 0.00833148 0)
(-0.106516 0.0025854 0)
(-0.106566 -0.00323788 0)
(-0.105513 -0.00902564 0)
(-0.103371 -0.0146629 0)
(-0.100175 -0.0200332 0)
(-0.0959761 -0.025019 0)
(-0.0908489 -0.0295039 0)
(-0.0848852 -0.0333738 0)
(-0.0781971 -0.03652 0)
(-0.0709156 -0.0388417 0)
(-0.0631894 -0.0402504 0)
(-0.0551836 -0.0406736 0)
(-0.0470769 -0.0400603 0)
(-0.0390589 -0.0383859 0)
(-0.0313249 -0.0356582 0)
(-0.0240715 -0.0319235 0)
(-0.0174883 -0.027272 0)
(-0.0117495 -0.0218433 0)
(-0.00700103 -0.0158304 0)
(-0.00333905 -0.0094814 0)
(-0.000795097 -0.00309534 0)
(-0.000939082 0.00421612 0)
(-0.00390486 0.0124381 0)
(-0.00810425 0.0202434 0)
(-0.013474 0.0273673 0)
(-0.0198857 0.0335997 0)
(-0.0271649 0.0387867 0)
(-0.0351154 0.0428267 0)
(-0.0435313 0.0456649 0)
(-0.052206 0.0472863 0)
(-0.0609382 0.0477088 0)
(-0.0695359 0.0469772 0)
(-0.0778194 0.0451571 0)
(-0.0856238 0.0423301 0)
(-0.0928 0.0385898 0)
(-0.0992159 0.0340388 0)
(-0.104757 0.0287864 0)
(-0.109327 0.0229472 0)
(-0.112847 0.0166396 0)
(-0.115256 0.00998571 0)
(-0.116512 0.00311098 0)
(-0.116592 -0.00385605 0)
(-0.11549 -0.0107838 0)
(-0.11322 -0.0175379 0)
(-0.109815 -0.023982 0)
(-0.105327 -0.0299783 0)
(-0.0998312 -0.0353896 0)
(-0.0934204 -0.040081 0)
(-0.0862097 -0.043923 0)
(-0.0783346 -0.046795 0)
(-0.0699507 -0.0485893 0)
(-0.0612322 -0.0492164 0)
(-0.05237 -0.0486106 0)
(-0.0435687 -0.0467357 0)
(-0.0350424 -0.0435916 0)
(-0.027009 -0.0392204 0)
(-0.0196831 -0.0337125 0)
(-0.0132652 -0.0272117 0)
(-0.00792801 -0.0199176 0)
(-0.00379165 -0.0120867 0)
(-0.000904405 -0.00402619 0)
(-0.00104582 0.00527982 0)
(-0.0043423 0.0153652 0)
(-0.00899431 0.0247725 0)
(-0.0149221 0.0332407 0)
(-0.0219745 0.0405643 0)
(-0.0299521 0.0465949 0)
(-0.0386339 0.0512382 0)
(-0.0477922 0.0544487 0)
(-0.0572011 0.0562227 0)
(-0.0666434 0.0565912 0)
(-0.0759145 0.0556136 0)
(-0.0848248 0.0533714 0)
(-0.093202 0.049963 0)
(-0.100892 0.0454993 0)
(-0.107758 0.0401005 0)
(-0.113685 0.0338938 0)
(-0.118573 0.0270114 0)
(-0.122342 0.0195897 0)
(-0.124932 0.0117686 0)
(-0.126299 0.00369179 0)
(-0.126417 -0.0044939 0)
(-0.125281 -0.012638 0)
(-0.122902 -0.0205867 0)
(-0.119313 -0.0281834 0)
(-0.114563 -0.0352696 0)
(-0.108727 -0.0416865 0)
(-0.101898 -0.047277 0)
(-0.094192 -0.0518895 0)
(-0.0857477 -0.0553811 0)
(-0.0767263 -0.0576226 0)
(-0.0673101 -0.0585044 0)
(-0.0577018 -0.0579425 0)
(-0.048121 -0.0558855 0)
(-0.038801 -0.0523211 0)
(-0.0299826 -0.0472837 0)
(-0.0219061 -0.0408599 0)
(-0.0148004 -0.0331941 0)
(-0.0088665 -0.0244904 0)
(-0.00424947 -0.0150122 0)
(-0.00101488 -0.00507538 0)
(-0.0011525 0.00645463 0)
(-0.00477931 0.018589 0)
(-0.00988326 0.0297472 0)
(-0.0163679 0.0396728 0)
(-0.0240586 0.0481668 0)
(-0.0327303 0.0550899 0)
(-0.0421368 0.0603592 0)
(-0.0520275 0.0639426 0)
(-0.0621574 0.0658516 0)
(-0.0722932 0.0661343 0)
(-0.082218 0.0648681 0)
(-0.0917333 0.0621533 0)
(-0.10066 0.0581074 0)
(-0.108841 0.0528605 0)
(-0.116137 0.0465517 0)
(-0.12243 0.039327 0)
(-0.127621 0.0313367 0)
(-0.131632 0.0227354 0)
(-0.134398 0.0136808 0)
(-0.135878 0.00433427 0)
(-0.136045 -0.0051392 0)
(-0.13489 -0.0145707 0)
(-0.132424 -0.0237871 0)
(-0.128676 -0.0326118 0)
(-0.123694 -0.0408652 0)
(-0.11755 -0.0483662 0)
(-0.110334 -0.0549348 0)
(-0.102163 -0.060395 0)
(-0.0931774 -0.0645795 0)
(-0.0835413 -0.0673349 0)
(-0.0734446 -0.0685279 0)
(-0.0631008 -0.0680524 0)
(-0.0527446 -0.0658371 0)
(-0.0426287 -0.0618536 0)
(-0.0330177 -0.0561236 0)
(-0.0241794 -0.048726 0)
(-0.0163726 -0.0398023 0)
(-0.00982869 -0.0295584 0)
(-0.00471918 -0.0182642 0)
(-0.00112822 -0.00624525 0)
(-0.00126027 0.00774099 0)
(-0.00522036 0.0221102 0)
(-0.0107791 0.0351679 0)
(-0.0178225 0.0466625 0)
(-0.0261515 0.0564043 0)
(-0.0355143 0.0642662 0)
(-0.0456387 0.0701809 0)
(-0.0562508 0.074134 0)
(-0.0670859 0.0761569 0)
(-0.0778952 0.0763188 0)
(-0.0884501 0.0747189 0)
(-0.0985441 0.0714793 0)
(-0.107993 0.0667394 0)
(-0.116637 0.0606503 0)
(-0.124336 0.0533718 0)
(-0.130973 0.0450689 0)
(-0.13645 0.0359111 0)
(-0.140689 0.0260705 0)
(-0.143627 0.0157224 0)
(-0.145221 0.00504541 0)
(-0.145446 -0.00577822 0)
(-0.144289 -0.0165618 0)
(-0.14176 -0.0271137 0)
(-0.137883 -0.0372375 0)
(-0.132703 -0.0467326 0)
(-0.126287 -0.0553953 0)
(-0.118722 -0.0630213 0)
(-0.110124 -0.0694089 0)
(-0.10063 -0.0743641 0)
(-0.0904075 -0.0777059 0)
(-0.0796525 -0.0792734 0)
(-0.0685879 -0.0789339 0)
(-0.057463 -0.0765916 0)
(-0.04655 -0.0721963 0)
(-0.0361381 -0.0657522 0)
(-0.0265243 -0.057326 0)
(-0.0179992 -0.0470521 0)
(-0.0108267 -0.0351361 0)
(-0.00520742 -0.0218532 0)
(-0.00124613 -0.00754002 0)
(-0.00137024 0.00914048 0)
(-0.00566975 0.0259319 0)
(-0.0116896 0.0410374 0)
(-0.0192964 0.0542114 0)
(-0.0282656 0.0652753 0)
(-0.0383168 0.0741184 0)
(-0.0491511 0.0806931 0)
(-0.0604706 0.0850078 0)
(-0.0719908 0.0871187 0)
(-0.083448 0.0871204 0)
(-0.0946027 0.0851382 0)
(-0.105242 0.0813198 0)
(-0.115178 0.0758289 0)
(-0.124249 0.0688401 0)
(-0.132318 0.0605347 0)
(-0.13927 0.0510983 0)
(-0.145008 0.0407188 0)
(-0.149457 0.0295863 0)
(-0.152558 0.0178925 0)
(-0.154267 0.00583244 0)
(-0.154558 -0.00639559 0)
(-0.153418 -0.0185882 0)
(-0.150851 -0.0305364 0)
(-0.146879 -0.0420249 0)
(-0.141541 -0.0528323 0)
(-0.134898 -0.0627321 0)
(-0.127031 -0.0714951 0)
(-0.11805 -0.0788924 0)
(-0.108091 -0.0847004 0)
(-0.0973204 -0.0887073 0)
(-0.0859378 -0.0907204 0)
(-0.0741742 -0.0905754 0)
(-0.0622925 -0.0881461 0)
(-0.0505845 -0.0833547 0)
(-0.0393645 -0.0761823 0)
(-0.0289601 -0.0666773 0)
(-0.0196961 -0.0549633 0)
(-0.011872 -0.0412422 0)
(-0.00572059 -0.0257934 0)
(-0.00137027 -0.00896569 0)
(-0.00148351 0.0106558 0)
(-0.00613163 0.0300594 0)
(-0.0126219 0.0473613 0)
(-0.0207995 0.0623225 0)
(-0.0304117 0.0747789 0)
(-0.0411482 0.0846399 0)
(-0.0526817 0.0918829 0)
(-0.0646899 0.0965445 0)
(-0.0768687 0.0987109 0)
(-0.0889398 0.0985078 0)
(-0.100655 0.0960908 0)
(-0.111794 0.0916369 0)
(-0.122171 0.0853376 0)
(-0.131624 0.0773929 0)
(-0.14002 0.0680072 0)
(-0.147247 0.057387 0)
(-0.153214 0.045739 0)
(-0.15785 0.0332702 0)
(-0.161099 0.0201881 0)
(-0.162919 0.00670222 0)
(-0.163284 -0.00697433 0)
(-0.162179 -0.0206234 0)
(-0.159606 -0.0340199 0)
(-0.155578 -0.046931 0)
(-0.150129 -0.0591156 0)
(-0.143311 -0.0703248 0)
(-0.135199 -0.0803035 0)
(-0.125894 -0.0887944 0)
(-0.115525 -0.0955419 0)
(-0.104257 -0.1003 0)
(-0.0922886 -0.102839 0)
(-0.0798581 -0.102957 0)
(-0.06724 -0.100492 0)
(-0.0547449 -0.0953311 0)
(-0.0427127 -0.0874253 0)
(-0.0315031 -0.0767989 0)
(-0.0214779 -0.0635587 0)
(-0.0129754 -0.0478992 0)
(-0.00626476 -0.0301025 0)
(-0.0015022 -0.0105299 0)
(-0.00160115 0.0122909 0)
(-0.00661009 0.0345004 0)
(-0.0135831 0.054147 0)
(-0.0223408 0.0710004 0)
(-0.0325993 0.0849138 0)
(-0.044016 0.095822 0)
(-0.0562338 0.103733 0)
(-0.0689052 0.108718 0)
(-0.0817068 0.110899 0)
(-0.094347 0.11044 0)
(-0.106569 0.10753 0)
(-0.118153 0.102381 0)
(-0.12891 0.0952157 0)
(-0.138685 0.0862608 0)
(-0.14735 0.0757458 0)
(-0.154801 0.0638983 0)
(-0.160954 0.0509435 0)
(-0.165744 0.0371044 0)
(-0.16912 0.0226026 0)
(-0.171043 0.00766071 0)
(-0.171488 -0.00749598 0)
(-0.170438 -0.0226365 0)
(-0.167891 -0.0375221 0)
(-0.163853 -0.0519041 0)
(-0.15835 -0.0655231 0)
(-0.151422 -0.0781084 0)
(-0.143135 -0.0893794 0)
(-0.133577 -0.0990486 0)
(-0.12287 -0.106826 0)
(-0.11117 -0.112428 0)
(-0.0986742 -0.115583 0)
(-0.085623 -0.116047 0)
(-0.0723007 -0.113611 0)
(-0.0590355 -0.108121 0)
(-0.046193 -0.0994897 0)
(-0.0341662 -0.087709 0)
(-0.0233569 -0.0728626 0)
(-0.0141466 -0.0551328 0)
(-0.00684564 -0.0348012 0)
(-0.00164345 -0.0122421 0)
(-0.0017243 0.0140505 0)
(-0.00710936 0.0392644 0)
(-0.0145803 0.0614042 0)
(-0.0239289 0.0802502 0)
(-0.0348365 0.0956776 0)
(-0.0469252 0.107652 0)
(-0.0598061 0.11622 0)
(-0.073106 0.121493 0)
(-0.0864828 0.123639 0)
(-0.0996329 0.122862 0)
(-0.112294 0.119396 0)
(-0.124247 0.11349 0)
(-0.135307 0.105399 0)
(-0.145327 0.0953825 0)
(-0.154188 0.0836944 0)
(-0.161797 0.0705842 0)
(-0.16808 0.0562949 0)
(-0.172979 0.0410641 0)
(-0.176453 0.0251255 0)
(-0.178465 0.00871218 0)
(-0.178993 -0.00794084 0)
(-0.178018 -0.0245928 0)
(-0.175532 -0.0409938 0)
(-0.171537 -0.0568822 0)
(-0.166045 -0.0719823 0)
(-0.159086 -0.0860028 0)
(-0.150709 -0.0986382 0)
(-0.140989 -0.10957 0)
(-0.130033 -0.118473 0)
(-0.117988 -0.12502 0)
(-0.105042 -0.128893 0)
(-0.0914341 -0.129797 0)
(-0.077456 -0.127471 0)
(-0.0634505 -0.12171 0)
(-0.0498086 -0.112378 0)
(-0.0369581 -0.0994235 0)
(-0.0253434 -0.0829002 0)
(-0.0153943 -0.0629709 0)
(-0.00746861 -0.0399133 0)
(-0.00179546 -0.0141129 0)
(-0.0018542 0.0159408 0)
(-0.00763406 0.044363 0)
(-0.015621 0.0691439 0)
(-0.0255725 0.0900771 0)
(-0.0371306 0.107065 0)
(-0.049878 0.120113 0)
(-0.0633923 0.129311 0)
(-0.0772741 0.134824 0)
(-0.091163 0.136871 0)
(-0.104746 0.135707 0)
(-0.117759 0.131613 0)
(-0.129985 0.124881 0)
(-0.14125 0.115807 0)
(-0.151417 0.10468 0)
(-0.160382 0.0917818 0)
(-0.168064 0.0773836 0)
(-0.174404 0.0617449 0)
(-0.179357 0.0451159 0)
(-0.182887 0.0277403 0)
(-0.184967 0.00985838 0)
(-0.185576 -0.00828844 0)
(-0.184695 -0.026453 0)
(-0.182312 -0.0443781 0)
(-0.178418 -0.0617921 0)
(-0.173014 -0.0784058 0)
(-0.166114 -0.09391 0)
(-0.157751 -0.107975 0)
(-0.147979 -0.120252 0)
(-0.136889 -0.130376 0)
(-0.124607 -0.137976 0)
(-0.111312 -0.142682 0)
(-0.0972356 -0.144138 0)
(-0.0826704 -0.142025 0)
(-0.067972 -0.136071 0)
(-0.0535549 -0.126082 0)
(-0.0398823 -0.111953 0)
(-0.027445 -0.0936948 0)
(-0.0167261 -0.0714426 0)
(-0.00813872 -0.0454643 0)
(-0.00195964 -0.0161546 0)
(-0.0019923 0.0179691 0)
(-0.00818944 0.0498101 0)
(-0.0167133 0.0773786 0)
(-0.0272807 0.100486 0)
(-0.0394877 0.119068 0)
(-0.0528739 0.133178 0)
(-0.0669807 0.142964 0)
(-0.081382 0.148651 0)
(-0.095701 0.150518 0)
(-0.109618 0.148883 0)
(-0.12287 0.144081 0)
(-0.13525 0.136453 0)
(-0.146596 0.126336 0)
(-0.156789 0.114055 0)
(-0.165742 0.0999188 0)
(-0.173393 0.0842193 0)
(-0.1797 0.0672316 0)
(-0.184632 0.0492163 0)
(-0.188166 0.0304236 0)
(-0.190284 0.0110975 0)
(-0.190967 -0.00851814 0)
(-0.190199 -0.0281741 0)
(-0.187959 -0.0476099 0)
(-0.184232 -0.0665483 0)
(-0.179005 -0.0846904 0)
(-0.172272 -0.101712 0)
(-0.164045 -0.117261 0)
(-0.154356 -0.13096 0)
(-0.143269 -0.142403 0)
(-0.13089 -0.151172 0)
(-0.117376 -0.156837 0)
(-0.102946 -0.158977 0)
(-0.0878888 -0.157199 0)
(-0.0725673 -0.151158 0)
(-0.0574169 -0.140581 0)
(-0.0429365 -0.1253 0)
(-0.029666 -0.105266 0)
(-0.0181485 -0.0805771 0)
(-0.00886074 -0.0514819 0)
(-0.00213736 -0.0183807 0)
(-0.0021403 0.0201444 0)
(-0.00878173 0.055622 0)
(-0.0178669 0.0861223 0)
(-0.0290633 0.111478 0)
(-0.0419137 0.131672 0)
(-0.0559094 0.146813 0)
(-0.070553 0.15712 0)
(-0.0853917 0.162893 0)
(-0.100035 0.164484 0)
(-0.11416 0.16228 0)
(-0.127512 0.15668 0)
(-0.139896 0.148079 0)
(-0.151171 0.136861 0)
(-0.16124 0.123388 0)
(-0.170039 0.107995 0)
(-0.177531 0.0909961 0)
(-0.183693 0.0726782 0)
(-0.188514 0.0533096 0)
(-0.191985 0.0331432 0)
(-0.1941 0.0124229 0)
(-0.194845 -0.00861008 0)
(-0.194203 -0.0297093 0)
(-0.192152 -0.0506162 0)
(-0.188665 -0.0710529 0)
(-0.183712 -0.0907157 0)
(-0.17727 -0.109269 0)
(-0.169322 -0.126344 0)
(-0.159875 -0.141531 0)
(-0.148961 -0.15439 0)
(-0.136654 -0.164447 0)
(-0.123086 -0.171211 0)
(-0.108453 -0.174186 0)
(-0.0930318 -0.172894 0)
(-0.0771859 -0.166898 0)
(-0.0613678 -0.155837 0)
(-0.046111 -0.139454 0)
(-0.0320073 -0.117628 0)
(-0.0196664 -0.0904018 0)
(-0.00963916 -0.0579948 0)
(-0.00232999 -0.0208063 0)
(-0.0023003 0.0224776 0)
(-0.00941851 0.0618179 0)
(-0.0190931 0.0953898 0)
(-0.0309313 0.123056 0)
(-0.0444135 0.144854 0)
(-0.0589767 0.160969 0)
(-0.0740824 0.171705 0)
(-0.0892522 0.177449 0)
(-0.104085 0.178643 0)
(-0.11826 0.175755 0)
(-0.131537 0.169256 0)
(-0.143742 0.159603 0)
(-0.154761 0.147228 0)
(-0.164525 0.132531 0)
(-0.173001 0.115878 0)
(-0.180178 0.0975982 0)
(-0.186062 0.0779903 0)
(-0.190662 0.0573263 0)
(-0.193988 0.0358573 0)
(-0.196046 0.0138218 0)
(-0.196831 -0.00854634 0)
(-0.196328 -0.0310094 0)
(-0.19451 -0.0533167 0)
(-0.19134 -0.0751957 0)
(-0.186772 -0.0963435 0)
(-0.18076 -0.11642 0)
(-0.173259 -0.135039 0)
(-0.164239 -0.151771 0)
(-0.153699 -0.166133 0)
(-0.141673 -0.177601 0)
(-0.128254 -0.185616 0)
(-0.113609 -0.189598 0)
(-0.0979904 -0.18897 0)
(-0.0817552 -0.18319 0)
(-0.0653656 -0.171785 0)
(-0.0493869 -0.154388 0)
(-0.034465 -0.130784 0)
(-0.0212831 -0.100941 0)
(-0.0104781 -0.065032 0)
(-0.00253885 -0.0234476 0)
(-0.0024749 0.0249819 0)
(-0.010109 0.0684203 0)
(-0.0204051 0.105197 0)
(-0.0328967 0.135216 0)
(-0.0469906 0.158584 0)
(-0.0620626 0.175581 0)
(-0.0775313 0.186617 0)
(-0.0928946 0.192188 0)
(-0.107746 0.19284 0)
(-0.121776 0.189135 0)
(-0.134764 0.181625 0)
(-0.146567 0.170835 0)
(-0.157107 0.15725 0)
(-0.166351 0.141311 0)
(-0.174302 0.123408 0)
(-0.180983 0.103887 0)
(-0.18643 0.083055 0)
(-0.190679 0.0611817 0)
(-0.193761 0.0385122 0)
(-0.195697 0.0152741 0)
(-0.196492 -0.00831235 0)
(-0.196133 -0.0320243 0)
(-0.194593 -0.0556255 0)
(-0.191822 -0.0788554 0)
(-0.187759 -0.101419 0)
(-0.182331 -0.122977 0)
(-0.175463 -0.143137 0)
(-0.167088 -0.161447 0)
(-0.157156 -0.177391 0)
(-0.145658 -0.190393 0)
(-0.132639 -0.199819 0)
(-0.11822 -0.205 0)
(-0.10262 -0.205247 0)
(-0.0861749 -0.199893 0)
(-0.0693489 -0.188328 0)
(-0.0527335 -0.170052 0)
(-0.0370291 -0.144725 0)
(-0.0229994 -0.112212 0)
(-0.0113811 -0.0726224 0)
(-0.00276525 -0.0263219 0)
(-0.00266729 0.0276736 0)
(-0.0108646 0.0754556 0)
(-0.0218188 0.115561 0)
(-0.0349723 0.147946 0)
(-0.0496452 0.172814 0)
(-0.065145 0.190561 0)
(-0.0808461 0.201729 0)
(-0.0962268 0.206946 0)
(-0.110883 0.20688 0)
(-0.124524 0.202203 0)
(-0.136965 0.19356 0)
(-0.148101 0.181548 0)
(-0.157899 0.166708 0)
(-0.166371 0.149519 0)
(-0.173562 0.130398 0)
(-0.179537 0.109702 0)
(-0.184366 0.0877391 0)
(-0.188113 0.064775 0)
(-0.190834 0.0410419 0)
(-0.192568 0.0167506 0)
(-0.193332 -0.00789868 0)
(-0.193119 -0.0327046 0)
(-0.191898 -0.0574524 0)
(-0.189611 -0.0819015 0)
(-0.186179 -0.105773 0)
(-0.181504 -0.128736 0)
(-0.175478 -0.150398 0)
(-0.167988 -0.170294 0)
(-0.158938 -0.18788 0)
(-0.14826 -0.202527 0)
(-0.135939 -0.213531 0)
(-0.122039 -0.220122 0)
(-0.106729 -0.221489 0)
(-0.0903091 -0.216815 0)
(-0.073231 -0.205331 0)
(-0.056104 -0.186365 0)
(-0.0396809 -0.15942 0)
(-0.0248128 -0.124224 0)
(-0.0123511 -0.080793 0)
(-0.00301035 -0.0294481 0)
(-0.00288131 0.0305727 0)
(-0.0116987 0.0829548 0)
(-0.0233519 0.126497 0)
(-0.0371704 0.161229 0)
(-0.0523716 0.187477 0)
(-0.0681878 0.205791 0)
(-0.0839497 0.216873 0)
(-0.0991231 0.221512 0)
(-0.113317 0.220522 0)
(-0.126276 0.214699 0)
(-0.137857 0.20479 0)
(-0.148012 0.191473 0)
(-0.156761 0.175343 0)
(-0.16417 0.156917 0)
(-0.170336 0.136632 0)
(-0.175367 0.114855 0)
(-0.179371 0.0918892 0)
(-0.182447 0.0679884 0)
(-0.184676 0.0433667 0)
(-0.186116 0.0182118 0)
(-0.186799 -0.00730291 0)
(-0.186723 -0.0330044 0)
(-0.185858 -0.0587071 0)
(-0.184138 -0.084198 0)
(-0.181469 -0.109223 0)
(-0.177726 -0.133469 0)
(-0.172766 -0.156555 0)
(-0.166432 -0.17801 0)
(-0.15857 -0.197268 0)
(-0.149048 -0.213659 0)
(-0.137778 -0.226404 0)
(-0.124752 -0.234632 0)
(-0.11007 -0.237393 0)
(-0.093976 -0.233705 0)
(-0.0768916 -0.222602 0)
(-0.0594296 -0.203206 0)
(-0.0423899 -0.174814 0)
(-0.0267153 -0.136975 0)
(-0.0133891 -0.0895677 0)
(-0.00327504 -0.0328462 0)
(-0.00312149 0.0337041 0)
(-0.0126269 0.0909536 0)
(-0.0250231 0.138018 0)
(-0.0394993 0.175031 0)
(-0.0551519 0.202481 0)
(-0.0711317 0.221113 0)
(-0.0867299 0.231833 0)
(-0.101411 0.235623 0)
(-0.114813 0.233468 0)
(-0.126731 0.226307 0)
(-0.137085 0.214996 0)
(-0.145893 0.200295 0)
(-0.153242 0.182857 0)
(-0.159262 0.16323 0)
(-0.164105 0.141868 0)
(-0.167929 0.119137 0)
(-0.170883 0.0953325 0)
(-0.173102 0.0706881 0)
(-0.174693 0.0453936 0)
(-0.175736 0.0196068 0)
(-0.176276 -0.00653169 0)
(-0.176323 -0.0328845 0)
(-0.175844 -0.0593023 0)
(-0.174772 -0.0856082 0)
(-0.172995 -0.111581 0)
(-0.170369 -0.136939 0)
(-0.166712 -0.161319 0)
(-0.161824 -0.18426 0)
(-0.155489 -0.205185 0)
(-0.147502 -0.223389 0)
(-0.137694 -0.238027 0)
(-0.125963 -0.248124 0)
(-0.112321 -0.252586 0)
(-0.0969333 -0.250238 0)
(-0.0801643 -0.239887 0)
(-0.0626108 -0.220401 0)
(-0.0451075 -0.190815 0)
(-0.028691 -0.150439 0)
(-0.0144938 -0.0989653 0)
(-0.00355965 -0.0365372 0)
(-0.00339293 0.037098 0)
(-0.0136663 0.0994923 0)
(-0.0268498 0.150132 0)
(-0.0419582 0.189297 0)
(-0.0579468 0.217692 0)
(-0.0738809 0.236316 0)
(-0.0890214 0.246331 0)
(-0.10285 0.248949 0)
(-0.115055 0.245356 0)
(-0.125504 0.236648 0)
(-0.134198 0.2238 0)
(-0.141241 0.207654 0)
(-0.146797 0.188913 0)
(-0.151067 0.168154 0)
(-0.154264 0.145836 0)
(-0.1566 0.122319 0)
(-0.158265 0.0978793 0)
(-0.15943 0.072726 0)
(-0.160229 0.0470167 0)
(-0.160763 0.0208734 0)
(-0.161093 -0.00560268 0)
(-0.161236 -0.0323156 0)
(-0.161168 -0.0591595 0)
(-0.160814 -0.0860013 0)
(-0.160055 -0.112663 0)
(-0.158726 -0.138903 0)
(-0.156615 -0.16439 0)
(-0.153474 -0.188687 0)
(-0.149029 -0.21122 0)
(-0.142997 -0.231265 0)
(-0.135114 -0.247922 0)
(-0.125173 -0.260117 0)
(-0.113068 -0.266603 0)
(-0.0988579 -0.266 0)
(-0.0828196 -0.256848 0)
(-0.0655033 -0.237708 0)
(-0.0477582 -0.207283 0)
(-0.0307102 -0.164569 0)
(-0.0156586 -0.108996 0)
(-0.00386338 -0.040543 0)
(-0.00370082 0.0407917 0)
(-0.0148333 0.108615 0)
(-0.0288426 0.162834 0)
(-0.0445267 0.203936 0)
(-0.0606787 0.232922 0)
(-0.0762798 0.25112 0)
(-0.0905788 0.260008 0)
(-0.103101 0.26108 0)
(-0.113615 0.255746 0)
(-0.122088 0.245277 0)
(-0.128628 0.230769 0)
(-0.133435 0.21314 0)
(-0.136767 0.193139 0)
(-0.1389 0.171355 0)
(-0.140115 0.148246 0)
(-0.140671 0.124154 0)
(-0.140805 0.0993282 0)
(-0.140717 0.0739436 0)
(-0.140567 0.04812 0)
(-0.140477 0.0219378 0)
(-0.140522 -0.00454616 0)
(-0.140731 -0.0312827 0)
(-0.141083 -0.058215 0)
(-0.141507 -0.0852607 0)
(-0.141878 -0.112294 0)
(-0.142015 -0.139122 0)
(-0.141683 -0.165464 0)
(-0.140595 -0.190918 0)
(-0.138417 -0.214936 0)
(-0.134788 -0.23679 0)
(-0.129343 -0.255546 0)
(-0.121752 -0.270043 0)
(-0.111772 -0.278886 0)
(-0.0993181 -0.280473 0)
(-0.0845393 -0.273046 0)
(-0.0678981 -0.254796 0)
(-0.0502252 -0.224014 0)
(-0.0327219 -0.179277 0)
(-0.0168684 -0.119656 0)
(-0.0041833 -0.0448858 0)
(-0.00404951 0.0448296 0)
(-0.0161399 0.118365 0)
(-0.0309955 0.176094 0)
(-0.0471467 0.218806 0)
(-0.063205 0.247906 0)
(-0.0780788 0.265148 0)
(-0.0910356 0.272406 0)
(-0.101684 0.271505 0)
(-0.109912 0.26411 0)
(-0.11582 0.251674 0)
(-0.119645 0.23541 0)
(-0.121705 0.216304 0)
(-0.122356 0.195131 0)
(-0.121956 0.172484 0)
(-0.120848 0.1488 0)
(-0.119342 0.124393 0)
(-0.11771 0.0994743 0)
(-0.116179 0.0741787 0)
(-0.114934 0.0485815 0)
(-0.114109 0.022717 0)
(-0.113794 -0.00340585 0)
(-0.114029 -0.0297884 0)
(-0.1148 -0.0564266 0)
(-0.116043 -0.0832942 0)
(-0.117633 -0.110324 0)
(-0.119383 -0.137384 0)
(-0.121042 -0.164254 0)
(-0.122292 -0.190588 0)
(-0.122752 -0.215883 0)
(-0.121987 -0.239435 0)
(-0.119528 -0.2603 0)
(-0.114912 -0.277254 0)
(-0.107736 -0.288769 0)
(-0.0977348 -0.293019 0)
(-0.0848797 -0.287916 0)
(-0.0694901 -0.271222 0)
(-0.0523277 -0.240712 0)
(-0.0346392 -0.194422 0)
(-0.0180925 -0.130921 0)
(-0.00451259 -0.0495872 0)
(-0.0044404 0.0492641 0)
(-0.0175854 0.128778 0)
(-0.033268 0.189842 0)
(-0.0496916 0.233684 0)
(-0.0652738 0.262265 0)
(-0.0788793 0.277896 0)
(-0.0898442 0.282936 0)
(-0.0979157 0.279597 0)
(-0.103152 0.269823 0)
(-0.105824 0.255244 0)
(-0.106322 0.237181 0)
(-0.105096 0.216664 0)
(-0.102604 0.194474 0)
(-0.099285 0.171186 0)
(-0.0955368 0.147202 0)
(-0.0917108 0.122792 0)
(-0.0881066 0.0981208 0)
(-0.0849719 0.0732747 0)
(-0.0825034 0.0482802 0)
(-0.0808481 0.0231227 0)
(-0.0801044 -0.00223854 0)
(-0.0803215 -0.0278563 0)
(-0.0814975 -0.0537809 0)
(-0.083576 -0.0800448 0)
(-0.0864411 -0.106644 0)
(-0.0899112 -0.133516 0)
(-0.0937318 -0.160512 0)
(-0.0975694 -0.18736 0)
(-0.101008 -0.213626 0)
(-0.103552 -0.238662 0)
(-0.104638 -0.261546 0)
(-0.103667 -0.281029 0)
(-0.100058 -0.29548 0)
(-0.0933283 -0.302861 0)
(-0.083218 -0.300744 0)
(-0.0698304 -0.286395 0)
(-0.0537839 -0.256966 0)
(-0.0363158 -0.209784 0)
(-0.0192733 -0.142734 0)
(-0.00483734 -0.054666 0)
(-0.00486789 0.0541538 0)
(-0.0191402 0.139871 0)
(-0.0355512 0.203934 0)