/*--------------------------------*- C++ -*----------------------------------*\
| =========                 |                                                 |
| \\      /  F ield         | OpenFOAM: The Open Source CFD Toolbox           |
|  \\    /   O peration     | Version:  4.1                                   |
|   \\  /    A nd           | Web:      www.OpenFOAM.org                      |
|    \\/     M anipulation  |                                                 |
\*---------------------------------------------------------------------------*/
FoamFile
{
    version     2.0;
    format      ascii;
    class       volVectorField;
    location    "0.153";
    object      U;
}
// * * * * * * * * * * * * * * * * * * * * * * * * * * * * * * * * * * * * * //

dimensions      [0 1 -1 0 0 0 0];

internalField   nonuniform List<vector> 
6400
(
(8.0285e-06 -7.99346e-06 0)
(3.0306e-05 -1.16454e-05 0)
(4.85642e-05 -8.09454e-06 0)
(5.6627e-05 1.19837e-06 0)
(5.02619e-05 1.42201e-05 0)
(2.69785e-05 2.93957e-05 0)
(-1.44513e-05 4.55783e-05 0)
(-7.4337e-05 6.19543e-05 0)
(-0.000152338 7.79526e-05 0)
(-0.000247659 9.31761e-05 0)
(-0.00035919 0.000107353 0)
(-0.000485612 0.000120302 0)
(-0.000625467 0.000131905 0)
(-0.00077721 0.000142092 0)
(-0.000939254 0.000150829 0)
(-0.00110999 0.000158106 0)
(-0.00128783 0.00016393 0)
(-0.00147118 0.000168324 0)
(-0.0016585 0.000171321 0)
(-0.00184829 0.000172962 0)
(-0.00203908 0.000173293 0)
(-0.00222947 0.000172363 0)
(-0.00241812 0.000170226 0)
(-0.00260373 0.000166939 0)
(-0.00278509 0.000162558 0)
(-0.00296103 0.000157142 0)
(-0.00313045 0.000150751 0)
(-0.00329232 0.000143446 0)
(-0.00344567 0.000135286 0)
(-0.00358961 0.000126334 0)
(-0.0037233 0.00011665 0)
(-0.00384599 0.000106299 0)
(-0.00395697 9.53414e-05 0)
(-0.00405562 8.38419e-05 0)
(-0.00414138 7.18642e-05 0)
(-0.00421376 5.94733e-05 0)
(-0.00427236 4.67348e-05 0)
(-0.00431682 3.37155e-05 0)
(-0.00434688 2.0483e-05 0)
(-0.00436235 7.10615e-06 0)
(-0.00436309 -6.3451e-06 0)
(-0.00434908 -1.97996e-05 0)
(-0.00432035 -3.3185e-05 0)
(-0.00427701 -4.64279e-05 0)
(-0.00421926 -5.94536e-05 0)
(-0.00414738 -7.21865e-05 0)
(-0.00406172 -8.45502e-05 0)
(-0.00396274 -9.64675e-05 0)
(-0.00385096 -0.000107861 0)
(-0.00372699 -0.000118652 0)
(-0.00359154 -0.000128762 0)
(-0.00344538 -0.000138116 0)
(-0.00328938 -0.000146634 0)
(-0.0031245 -0.000154243 0)
(-0.00295177 -0.000160867 0)
(-0.00277229 -0.000166435 0)
(-0.00258727 -0.000170877 0)
(-0.00239795 -0.000174128 0)
(-0.00220567 -0.000176125 0)
(-0.00201184 -0.000176811 0)
(-0.0018179 -0.000176134 0)
(-0.00162538 -0.00017405 0)
(-0.00143582 -0.000170522 0)
(-0.00125083 -0.00016552 0)
(-0.00107201 -0.00015903 0)
(-0.000901022 -0.000151048 0)
(-0.000739479 -0.00014159 0)
(-0.000588997 -0.000130691 0)
(-0.000451141 -0.000118415 0)
(-0.0003274 -0.000104863 0)
(-0.000219145 -9.01826e-05 0)
(-0.000127575 -7.45877e-05 0)
(-5.36454e-05 -5.83798e-05 0)
(2.03281e-06 -4.19822e-05 0)
(3.93294e-05 -2.59863e-05 0)
(5.87809e-05 -1.12151e-05 0)
(6.18444e-05 1.19317e-06 0)
(5.12159e-05 9.7043e-06 0)
(3.12633e-05 1.24092e-05 0)
(8.16385e-06 8.09724e-06 0)
(1.18092e-05 -3.02457e-05 0)
(4.55942e-05 -4.51121e-05 0)
(6.53468e-05 -2.69981e-05 0)
(5.67773e-05 1.37716e-05 0)
(9.8364e-06 6.89828e-05 0)
(-8.16072e-05 0.000132512 0)
(-0.000220768 0.000199897 0)
(-0.000408641 0.000267936 0)
(-0.000644577 0.000334356 0)
(-0.000926721 0.000397557 0)
(-0.00125235 0.000456433 0)
(-0.00161811 0.000510232 0)
(-0.00202024 0.000558465 0)
(-0.00245469 0.000600833 0)
(-0.00291723 0.00063718 0)
(-0.00340354 0.000667454 0)
(-0.00390929 0.000691681 0)
(-0.00443016 0.000709944 0)
(-0.00496189 0.000722373 0)
(-0.00550032 0.000729129 0)
(-0.0060414 0.000730399 0)
(-0.00658121 0.000726388 0)
(-0.00711598 0.000717316 0)
(-0.00764209 0.000703413 0)
(-0.00815609 0.000684917 0)
(-0.0086547 0.000662073 0)
(-0.00913482 0.000635128 0)
(-0.00959352 0.000604334 0)
(-0.0100281 0.000569948 0)
(-0.0104359 0.000532227 0)
(-0.0108147 0.00049143 0)
(-0.0111623 0.00044782 0)
(-0.0114766 0.000401661 0)
(-0.011756 0.00035322 0)
(-0.0119988 0.000302769 0)
(-0.0122036 0.000250579 0)
(-0.0123694 0.00019693 0)
(-0.012495 0.000142101 0)
(-0.0125798 8.63786e-05 0)
(-0.0126232 3.00527e-05 0)
(-0.0126249 -2.65819e-05 0)
(-0.0125848 -8.32255e-05 0)
(-0.0125029 -0.000139574 0)
(-0.0123797 -0.000195317 0)
(-0.0122157 -0.000250141 0)
(-0.0120117 -0.000303729 0)
(-0.0117687 -0.00035576 0)
(-0.0114881 -0.000405908 0)
(-0.0111712 -0.000453849 0)
(-0.0108199 -0.000499256 0)
(-0.0104362 -0.000541801 0)
(-0.0100223 -0.000581161 0)
(-0.00958055 -0.000617013 0)
(-0.00911375 -0.000649043 0)
(-0.0086248 -0.000676941 0)
(-0.00811681 -0.000700406 0)
(-0.00759312 -0.000719152 0)
(-0.00705729 -0.000732903 0)
(-0.00651303 -0.000741404 0)
(-0.00596426 -0.000744419 0)
(-0.00541503 -0.000741734 0)
(-0.00486954 -0.000733166 0)
(-0.00433208 -0.000718566 0)
(-0.00380706 -0.000697823 0)
(-0.00329892 -0.000670877 0)
(-0.0028121 -0.000637723 0)
(-0.00235103 -0.00059843 0)
(-0.00192003 -0.000553156 0)
(-0.00152326 -0.000502176 0)
(-0.00116464 -0.00044591 0)
(-0.000847695 -0.000384975 0)
(-0.000575471 -0.000320249 0)
(-0.000350299 -0.000252958 0)
(-0.000173573 -0.000184806 0)
(-4.54219e-05 -0.000118146 0)
(3.57019e-05 -5.62141e-05 0)
(7.35603e-05 -3.43393e-06 0)
(7.47668e-05 3.42306e-05 0)
(4.96912e-05 4.89385e-05 0)
(1.26702e-05 3.11264e-05 0)
(8.45906e-06 -4.86803e-05 0)
(2.82678e-05 -6.49287e-05 0)
(2.11244e-05 -1.9367e-05 0)
(-3.1407e-05 6.84057e-05 0)
(-0.00014276 0.000183299 0)
(-0.000321384 0.000313983 0)
(-0.000571877 0.000452065 0)
(-0.00089579 0.000591398 0)
(-0.00129233 0.000727522 0)
(-0.00175892 0.000857234 0)
(-0.00229166 0.000978266 0)
(-0.00288565 0.00108904 0)
(-0.00353533 0.00118851 0)
(-0.0042346 0.001276 0)
(-0.00497708 0.00135113 0)
(-0.00575618 0.00141375 0)
(-0.00656523 0.00146386 0)
(-0.00739757 0.00150159 0)
(-0.00824659 0.00152719 0)
(-0.0091058 0.00154096 0)
(-0.00996885 0.00154326 0)
(-0.0108296 0.00153451 0)
(-0.0116821 0.00151514 0)
(-0.0125206 0.00148562 0)
(-0.0133398 0.00144644 0)
(-0.0141343 0.00139811 0)
(-0.0148993 0.00134114 0)
(-0.0156301 0.00127605 0)
(-0.0163223 0.00120339 0)
(-0.016972 0.00112369 0)
(-0.0175753 0.00103749 0)
(-0.0181288 0.00094536 0)
(-0.0186294 0.000847846 0)
(-0.0190741 0.000745517 0)
(-0.0194606 0.000638945 0)
(-0.0197865 0.00052871 0)
(-0.0200501 0.000415398 0)
(-0.0202498 0.000299607 0)
(-0.0203845 0.00018194 0)
(-0.0204531 6.3012e-05 0)
(-0.0204553 -5.65524e-05 0)
(-0.0203909 -0.000176119 0)
(-0.02026 -0.000295045 0)
(-0.0200633 -0.000412676 0)
(-0.0198016 -0.00052835 0)
(-0.0194763 -0.000641398 0)
(-0.019089 -0.000751142 0)
(-0.0186417 -0.000856901 0)
(-0.018137 -0.000957991 0)
(-0.0175774 -0.00105373 0)
(-0.0169663 -0.00114342 0)
(-0.0163072 -0.0012264 0)
(-0.0156039 -0.00130198 0)
(-0.0148608 -0.00136952 0)
(-0.0140824 -0.00142837 0)
(-0.0132737 -0.00147791 0)
(-0.0124401 -0.00151754 0)
(-0.0115869 -0.00154671 0)
(-0.0107203 -0.00156487 0)
(-0.00984619 -0.00157156 0)
(-0.00897105 -0.00156635 0)
(-0.0081014 -0.00154888 0)
(-0.00724398 -0.00151885 0)
(-0.0064056 -0.00147606 0)
(-0.00559313 -0.00142042 0)
(-0.00481346 -0.00135195 0)
(-0.00407335 -0.00127084 0)
(-0.0033794 -0.00117746 0)
(-0.00273791 -0.00107242 0)
(-0.00215473 -0.000956633 0)
(-0.00163512 -0.000831409 0)
(-0.00118352 -0.000698573 0)
(-0.000803258 -0.000560626 0)
(-0.000496246 -0.000420974 0)
(-0.000262536 -0.000284228 0)
(-9.97964e-05 -0.0001566 0)
(-2.65785e-06 -4.64128e-05 0)
(3.80099e-05 3.52798e-05 0)
(3.61153e-05 7.39925e-05 0)
(1.02586e-05 5.12483e-05 0)
(-5.65474e-07 -5.7254e-05 0)
(-1.14358e-05 -5.70744e-05 0)
(-6.48013e-05 3.28906e-05 0)
(-0.000180781 0.0001848 0)
(-0.000374349 0.000376988 0)
(-0.000655036 0.000592879 0)
(-0.00102808 0.000819939 0)
(-0.00149522 0.00104878 0)
(-0.00205542 0.00127244 0)
(-0.00270549 0.0014858 0)
(-0.00344057 0.00168518 0)
(-0.00425452 0.00186793 0)
(-0.00514028 0.00203225 0)
(-0.00609012 0.00217695 0)
(-0.00709584 0.00230132 0)
(-0.00814894 0.00240501 0)
(-0.00924078 0.00248796 0)
(-0.0103627 0.00255033 0)
(-0.0115059 0.00259246 0)
(-0.0126621 0.00261479 0)
(-0.0138228 0.00261791 0)
(-0.0149798 0.00260246 0)
(-0.0161254 0.00256915 0)
(-0.0172519 0.00251875 0)
(-0.0183521 0.00245206 0)
(-0.019419 0.00236992 0)
(-0.0204461 0.00227317 0)
(-0.0214272 0.0021627 0)
(-0.0223564 0.00203941 0)
(-0.0232284 0.0019042 0)
(-0.024038 0.001758 0)
(-0.0247807 0.00160174 0)
(-0.0254522 0.00143637 0)
(-0.0260487 0.00126284 0)
(-0.026567 0.00108213 0)
(-0.027004 0.000895228 0)
(-0.0273573 0.000703125 0)
(-0.0276247 0.000506835 0)
(-0.0278048 0.000307387 0)
(-0.0278964 0.000105826 0)
(-0.0278988 -9.67892e-05 0)
(-0.0278118 -0.000299382 0)
(-0.0276356 -0.000500859 0)
(-0.0273712 -0.000700115 0)
(-0.0270196 -0.000896028 0)
(-0.0265827 -0.00108747 0)
(-0.0260627 -0.00127328 0)
(-0.0254624 -0.00145233 0)
(-0.0247849 -0.00162345 0)
(-0.0240341 -0.0017855 0)
(-0.0232141 -0.00193732 0)
(-0.0223298 -0.00207777 0)
(-0.0213863 -0.00220573 0)
(-0.0203893 -0.0023201 0)
(-0.019345 -0.00241981 0)
(-0.01826 -0.00250383 0)
(-0.0171413 -0.00257116 0)
(-0.0159963 -0.00262089 0)
(-0.0148328 -0.00265215 0)
(-0.0136588 -0.00266415 0)
(-0.0124829 -0.00265622 0)
(-0.0113136 -0.00262779 0)
(-0.0101598 -0.00257839 0)
(-0.00903044 -0.00250775 0)
(-0.00793444 -0.00241575 0)
(-0.00688077 -0.0023025 0)
(-0.00587822 -0.00216838 0)
(-0.00493529 -0.00201405 0)
(-0.00406005 -0.00184063 0)
(-0.00325999 -0.00164968 0)
(-0.00254175 -0.00144342 0)
(-0.0019109 -0.00122488 0)
(-0.00137162 -0.000998132 0)
(-0.000926283 -0.000768597 0)
(-0.000575017 -0.000543475 0)
(-0.000315126 -0.00033226 0)
(-0.000140425 -0.000147405 0)
(-4.05258e-05 -5.12226e-06 0)
(1.9225e-07 7.36806e-05 0)
(2.1871e-06 6.24808e-05 0)
(-1.33216e-05 -5.18073e-05 0)
(-6.56152e-05 -1.15821e-05 0)
(-0.000178042 0.000143199 0)
(-0.000370952 0.000378019 0)
(-0.000659558 0.000665439 0)
(-0.00105346 0.000984016 0)
(-0.00155782 0.00131717 0)
(-0.00217412 0.00165223 0)
(-0.00290086 0.00197959 0)
(-0.00373417 0.00229205 0)
(-0.00466829 0.00258429 0)
(-0.00569601 0.00285246 0)
(-0.006809 0.00309382 0)
(-0.0079981 0.00330653 0)
(-0.00925358 0.00348944 0)
(-0.0105653 0.00364193 0)
(-0.011923 0.00376382 0)
(-0.0133161 0.00385526 0)
(-0.0147343 0.00391664 0)
(-0.0161672 0.0039486 0)
(-0.0176048 0.00395192 0)
(-0.0190371 0.00392751 0)
(-0.0204545 0.0038764 0)
(-0.0218478 0.00379969 0)
(-0.0232082 0.00369856 0)
(-0.0245271 0.00357422 0)
(-0.0257965 0.00342796 0)
(-0.0270088 0.00326106 0)
(-0.0281568 0.00307488 0)
(-0.0292338 0.00287077 0)
(-0.0302338 0.0026501 0)
(-0.0311509 0.0024143 0)
(-0.03198 0.00216478 0)
(-0.0327164 0.00190299 0)
(-0.033356 0.00163039 0)
(-0.0338953 0.00134846 0)
(-0.034331 0.00105873 0)
(-0.0346608 0.000762713 0)
(-0.0348826 0.000461965 0)
(-0.0349951 0.000158065 0)
(-0.0349975 -0.000147389 0)
(-0.0348896 -0.000452772 0)
(-0.0346716 -0.000756439 0)
(-0.0343446 -0.00105672 0)
(-0.0339101 -0.00135193 0)
(-0.0333703 -0.00164036 0)
(-0.032728 -0.0019203 0)
(-0.0319865 -0.00219002 0)
(-0.0311498 -0.00244779 0)
(-0.0302227 -0.00269188 0)
(-0.0292102 -0.00292057 0)
(-0.0281182 -0.00313217 0)
(-0.0269532 -0.00332501 0)
(-0.025722 -0.00349743 0)
(-0.0244322 -0.00364787 0)
(-0.0230919 -0.00377478 0)
(-0.0217097 -0.00387672 0)
(-0.0202946 -0.00395233 0)
(-0.0188561 -0.00400034 0)
(-0.017404 -0.00401964 0)
(-0.0159486 -0.00400924 0)
(-0.0145003 -0.00396832 0)
(-0.0130699 -0.0038963 0)
(-0.011668 -0.00379278 0)
(-0.0103055 -0.00365769 0)
(-0.00899319 -0.00349125 0)
(-0.00774149 -0.00329411 0)
(-0.00656059 -0.00306737 0)
(-0.00546007 -0.00281272 0)
(-0.00444879 -0.00253256 0)
(-0.00353461 -0.0022302 0)
(-0.00272412 -0.00191007 0)
(-0.00202228 -0.00157799 0)
(-0.00143204 -0.00124164 0)
(-0.00095387 -0.000910939 0)
(-0.000585177 -0.000598745 0)
(-0.000319693 -0.000321565 0)
(-0.000146787 -0.000100448 0)
(-5.04087e-05 3.79969e-05 0)
(-9.669e-06 6.06366e-05 0)
(-2.834e-05 -2.9812e-05 0)
(-0.000128594 7.7903e-05 0)
(-0.000308215 0.000320492 0)
(-0.000586971 0.000658366 0)
(-0.000979438 0.00105932 0)
(-0.00149451 0.00149764 0)
(-0.00213667 0.00195303 0)
(-0.00290668 0.00240965 0)
(-0.00380233 0.00285526 0)
(-0.00481889 0.00328054 0)
(-0.0059497 0.00367844 0)
(-0.0071865 0.00404375 0)
(-0.0085198 0.00437273 0)
(-0.0099392 0.00466277 0)
(-0.0114336 0.00491219 0)
(-0.0129915 0.00512003 0)
(-0.0146011 0.00528593 0)
(-0.0162503 0.00540997 0)
(-0.0179272 0.00549263 0)
(-0.01962 0.00553467 0)
(-0.0213168 0.00553712 0)
(-0.0230064 0.00550116 0)
(-0.0246776 0.00542817 0)
(-0.0263197 0.00531963 0)
(-0.0279222 0.00517713 0)
(-0.0294755 0.00500235 0)
(-0.03097 0.00479702 0)
(-0.0323969 0.00456294 0)
(-0.0337479 0.00430197 0)
(-0.0350152 0.00401598 0)
(-0.0361915 0.0037069 0)
(-0.0372702 0.00337668 0)
(-0.0382452 0.00302733 0)
(-0.0391111 0.00266084 0)
(-0.039863 0.00227928 0)
(-0.0404968 0.00188472 0)
(-0.0410088 0.00147927 0)
(-0.0413961 0.00106507 0)
(-0.0416565 0.000644306 0)
(-0.0417884 0.000219171 0)
(-0.0417907 -0.000208092 0)
(-0.0416633 -0.000635212 0)
(-0.0414066 -0.00105989 0)
(-0.0410217 -0.00147979 0)
(-0.0405105 -0.00189257 0)
(-0.0398756 -0.00229584 0)
(-0.0391201 -0.00268721 0)
(-0.038248 -0.00306429 0)
(-0.0372641 -0.00342467 0)
(-0.0361737 -0.00376594 0)
(-0.034983 -0.00408573 0)
(-0.0336987 -0.00438169 0)
(-0.0323282 -0.00465149 0)
(-0.0308798 -0.00489289 0)
(-0.0293622 -0.0051037 0)
(-0.0277848 -0.00528182 0)
(-0.0261576 -0.00542526 0)
(-0.024491 -0.00553216 0)
(-0.0227961 -0.00560084 0)
(-0.0210842 -0.00562976 0)
(-0.0193672 -0.00561763 0)
(-0.0176571 -0.00556338 0)
(-0.0159663 -0.00546624 0)
(-0.0143072 -0.00532578 0)
(-0.0126922 -0.00514196 0)
(-0.0111335 -0.00491519 0)
(-0.00964329 -0.00464644 0)
(-0.00823304 -0.00433732 0)
(-0.00691373 -0.00399024 0)
(-0.00569545 -0.00360855 0)
(-0.00458717 -0.00319676 0)
(-0.00359647 -0.00276084 0)
(-0.00272918 -0.00230851 0)
(-0.00198897 -0.00184972 0)
(-0.00137694 -0.00139717 0)
(-0.000891069 -0.000966972 0)
(-0.000525626 -0.000579394 0)
(-0.0002705 -0.000259791 0)
(-0.00011008 -3.95431e-05 0)
(-2.38579e-05 4.31208e-05 0)
(-4.45972e-05 1.0133e-05 0)
(-0.000196427 0.000215181 0)
(-0.000448004 0.000570412 0)
(-0.000818106 0.00103261 0)
(-0.00132012 0.00156581 0)
(-0.00196169 0.00214073 0)
(-0.0027461 0.00273378 0)
(-0.00367306 0.00332622 0)
(-0.0047393 0.00390333 0)
(-0.00593911 0.00445367 0)
(-0.00726479 0.00496846 0)
(-0.00870702 0.00544112 0)
(-0.0102552 0.00586679 0)
(-0.0118978 0.00624205 0)
(-0.0136225 0.00656463 0)
(-0.0154164 0.00683317 0)
(-0.0172664 0.00704708 0)
(-0.0191592 0.00720637 0)
(-0.0210814 0.00731155 0)
(-0.0230198 0.00736353 0)
(-0.0249613 0.00736356 0)
(-0.0268931 0.00731313 0)
(-0.0288026 0.00721398 0)
(-0.030678 0.007068 0)
(-0.0325074 0.00687726 0)
(-0.0342799 0.00664391 0)
(-0.0359848 0.00637022 0)
(-0.0376121 0.00605856 0)
(-0.0391525 0.00571133 0)
(-0.0405971 0.00533101 0)
(-0.0419377 0.00492016 0)
(-0.0431668 0.00448134 0)
(-0.0442776 0.00401719 0)
(-0.045264 0.00353038 0)
(-0.0461204 0.00302362 0)
(-0.046842 0.00249968 0)
(-0.047425 0.00196134 0)
(-0.0478658 0.00141146 0)
(-0.0481621 0.00085291 0)
(-0.048312 0.000288623 0)
(-0.0483144 -0.000278435 0)
(-0.048169 -0.000845255 0)
(-0.0478764 -0.00140879 0)
(-0.0474379 -0.00196595 0)
(-0.0468555 -0.00251363 0)
(-0.0461322 -0.00304869 0)
(-0.0452717 -0.00356795 0)
(-0.0442783 -0.00406827 0)
(-0.0431576 -0.00454645 0)
(-0.0419154 -0.00499936 0)
(-0.0405588 -0.00542384 0)
(-0.0390955 -0.00581682 0)
(-0.0375337 -0.00617525 0)
(-0.0358827 -0.00649618 0)
(-0.0341525 -0.00677676 0)
(-0.0323534 -0.00701425 0)
(-0.0304969 -0.00720607 0)
(-0.0285945 -0.00734982 0)
(-0.0266588 -0.0074433 0)
(-0.0247025 -0.00748457 0)
(-0.0227387 -0.00747198 0)
(-0.0207812 -0.0074042 0)
(-0.0188435 -0.0072803 0)
(-0.0169395 -0.00709979 0)
(-0.0150832 -0.00686271 0)
(-0.0132881 -0.0065697 0)
(-0.0115677 -0.00622211 0)
(-0.00993488 -0.00582214 0)
(-0.00840177 -0.00537296 0)
(-0.00697966 -0.00487897 0)
(-0.00567862 -0.00434597 0)
(-0.00450723 -0.00378153 0)
(-0.0034723 -0.00319529 0)
(-0.00257843 -0.0025995 0)
(-0.00182765 -0.00200949 0)
(-0.00121891 -0.00144441 0)
(-0.000747486 -0.000927905 0)
(-0.000404351 -0.000489003 0)
(-0.000174879 -0.000162899 0)
(-3.93548e-05 8.45854e-06 0)
(-6.14096e-05 6.86565e-05 0)
(-0.000266455 0.000402223 0)
(-0.000592379 0.000896151 0)
(-0.00105682 0.00150479 0)
(-0.00167169 0.00218937 0)
(-0.00244297 0.00291769 0)
(-0.00337243 0.00366339 0)
(-0.00445835 0.00440517 0)
(-0.00569619 0.005126 0)
(-0.00707903 0.00581246 0)
(-0.00859804 0.00645411 0)
(-0.0102428 0.00704297 0)
(-0.0120015 0.00757309 0)
(-0.0138616 0.0080402 0)
(-0.0158095 0.0084414 0)
(-0.0178312 0.0087749 0)
(-0.0199124 0.00903985 0)
(-0.0220385 0.00923617 0)
(-0.024195 0.00936438 0)
(-0.0263673 0.00942554 0)
(-0.028541 0.00942113 0)
(-0.0307023 0.00935297 0)
(-0.0328373 0.00922316 0)
(-0.0349328 0.00903406 0)
(-0.0369761 0.00878822 0)
(-0.0389549 0.00848834 0)
(-0.0408576 0.00813726 0)
(-0.0426732 0.00773794 0)
(-0.0443912 0.00729344 0)
(-0.046002 0.0068069 0)
(-0.0474966 0.00628152 0)
(-0.0488666 0.00572059 0)
(-0.0501046 0.00512744 0)
(-0.0512036 0.00450548 0)
(-0.0521577 0.00385816 0)
(-0.0529617 0.003189 0)
(-0.053611 0.00250156 0)
(-0.054102 0.00179945 0)
(-0.054432 0.00108636 0)
(-0.0545988 0.000366006 0)
(-0.0546014 -0.000357822 0)
(-0.0544395 -0.0010813 0)
(-0.0541137 -0.00180054 0)
(-0.0536253 -0.00251162 0)
(-0.0529767 -0.00321059 0)
(-0.0521711 -0.00389345 0)
(-0.0512126 -0.0045562 0)
(-0.0501062 -0.0051948 0)
(-0.0488576 -0.00580525 0)
(-0.0474737 -0.00638353 0)
(-0.0459621 -0.0069257 0)
(-0.0443311 -0.00742784 0)
(-0.04259 -0.00788612 0)
(-0.0407491 -0.00829682 0)
(-0.038819 -0.00865635 0)
(-0.0368116 -0.00896128 0)
(-0.0347389 -0.00920836 0)
(-0.0326141 -0.00939462 0)
(-0.0304507 -0.00951731 0)
(-0.0282627 -0.00957405 0)
(-0.0260646 -0.0095628 0)
(-0.0238711 -0.00948197 0)
(-0.0216975 -0.00933045 0)
(-0.0195588 -0.00910772 0)
(-0.0174701 -0.0088139 0)
(-0.0154465 -0.00844988 0)
(-0.0135026 -0.00801746 0)
(-0.0116524 -0.00751943 0)
(-0.00990934 -0.00695983 0)
(-0.00828584 -0.00634409 0)
(-0.00679306 -0.00567938 0)
(-0.0054407 -0.00497484 0)
(-0.00423665 -0.00424202 0)
(-0.00318666 -0.00349536 0)
(-0.00229394 -0.00275267 0)
(-0.00155873 -0.00203582 0)
(-0.0009777 -0.00137142 0)
(-0.000543273 -0.000791501 0)
(-0.00024212 -0.000334204 0)
(-5.54684e-05 -4.40483e-05 0)
(-7.83339e-05 0.000145883 0)
(-0.000336937 0.000639741 0)
(-0.000737977 0.00129915 0)
(-0.00129798 0.00207697 0)
(-0.00202721 0.00293241 0)
(-0.00292981 0.00383102 0)
(-0.00400574 0.00474413 0)
(-0.00525163 0.00564825 0)
(-0.00666142 0.0065243 0)
(-0.00822683 0.00735707 0)
(-0.00993775 0.00813453 0)
(-0.0117825 0.0088474 0)
(-0.0137483 0.00948865 0)
(-0.0158213 0.0100532 0)
(-0.0179867 0.0105374 0)
(-0.0202296 0.0109391 0)
(-0.0225344 0.0112573 0)
(-0.0248855 0.0114916 0)
(-0.027267 0.0116427 0)
(-0.0296634 0.0117117 0)
(-0.0320592 0.0117004 0)
(-0.0344393 0.0116109 0)
(-0.0367889 0.0114458 0)
(-0.0390936 0.0112078 0)
(-0.0413398 0.0109 0)
(-0.043514 0.0105257 0)
(-0.0456038 0.0100884 0)
(-0.0475973 0.00959175 0)
(-0.0494831 0.00903938 0)
(-0.0512507 0.00843519 0)
(-0.0528904 0.00778312 0)
(-0.0543931 0.00708722 0)
(-0.0557508 0.00635159 0)
(-0.056956 0.00558044 0)
(-0.0580021 0.00477802 0)
(-0.0588835 0.00394867 0)
(-0.0595954 0.00309679 0)
(-0.0601338 0.00222686 0)
(-0.0604956 0.00134341 0)
(-0.0606787 0.000451044 0)
(-0.0606819 -0.000445563 0)
(-0.0605048 -0.00134168 0)
(-0.060148 -0.00223253 0)
(-0.0596132 -0.00311327 0)
(-0.0589028 -0.00397902 0)
(-0.0580203 -0.00482485 0)
(-0.0569701 -0.00564584 0)
(-0.0557577 -0.00643704 0)
(-0.0543894 -0.00719349 0)
(-0.0528723 -0.0079103 0)
(-0.0512149 -0.00858258 0)
(-0.0494262 -0.00920556 0)
(-0.0475162 -0.00977454 0)
(-0.045496 -0.010285 0)
(-0.0433772 -0.0107324 0)
(-0.0411724 -0.0111128 0)
(-0.0388949 -0.0114221 0)
(-0.0365587 -0.0116567 0)
(-0.0341784 -0.0118133 0)
(-0.0317693 -0.011889 0)
(-0.0293468 -0.0118814 0)
(-0.0269271 -0.0117886 0)
(-0.0245264 -0.0116094 0)
(-0.0221609 -0.0113431 0)
(-0.0198472 -0.0109899 0)
(-0.0176012 -0.0105512 0)
(-0.0154388 -0.010029 0)
(-0.0133754 -0.00942681 0)
(-0.0114254 -0.00874953 0)
(-0.00960239 -0.00800367 0)
(-0.00791874 -0.00719771 0)
(-0.00638534 -0.00634235 0)
(-0.00501132 -0.00545096 0)
(-0.00380373 -0.00454001 0)
(-0.00276722 -0.0036296 0)
(-0.00190357 -0.00274399 0)
(-0.00121108 -0.00191229 0)
(-0.000683869 -0.00116896 0)
(-0.000310036 -0.000554331 0)
(-7.17477e-05 -0.000114587 0)
(-9.50946e-05 0.000241623 0)
(-0.000406779 0.000927619 0)
(-0.000882636 0.00177965 0)
(-0.00153819 0.00274978 0)
(-0.00238203 0.00379586 0)
(-0.00341635 0.00488175 0)
(-0.00463912 0.00597696 0)
(-0.00604516 0.00705614 0)
(-0.0076267 0.00809846 0)
(-0.00937396 0.00908709 0)
(-0.0112754 0.0100086 0)
(-0.0133181 0.0108524 0)
(-0.015488 0.0116106 0)
(-0.01777 0.0122772 0)
(-0.0201485 0.0128481 0)
(-0.0226071 0.0133205 0)
(-0.0251294 0.0136933 0)
(-0.0276985 0.0139659 0)
(-0.0302976 0.0141391 0)
(-0.0329101 0.0142142 0)
(-0.0355195 0.0141931 0)
(-0.0381097 0.0140784 0)
(-0.0406647 0.0138729 0)
(-0.0431695 0.0135801 0)
(-0.0456092 0.0132036 0)
(-0.0479698 0.0127472 0)
(-0.0502377 0.0122151 0)
(-0.0524002 0.0116116 0)
(-0.0544453 0.0109411 0)
(-0.0563617 0.0102083 0)
(-0.058139 0.00941789 0)
(-0.0597676 0.00857475 0)
(-0.0612387 0.00768382 0)
(-0.0625445 0.00675013 0)
(-0.0636778 0.00577882 0)
(-0.0646327 0.00477511 0)
(-0.065404 0.00374431 0)
(-0.0659874 0.0026918 0)
(-0.0663797 0.00162305 0)
(-0.0665786 0.000543614 0)
(-0.0665827 -0.000540894 0)
(-0.0663917 -0.00162477 0)
(-0.0660063 -0.00270227 0)
(-0.0654282 -0.00376755 0)
(-0.0646599 -0.00481475 0)
(-0.0637053 -0.00583796 0)
(-0.062569 -0.00683124 0)
(-0.0612569 -0.00778864 0)
(-0.0597756 -0.00870424 0)
(-0.058133 -0.00957215 0)
(-0.0563378 -0.0103865 0)
(-0.0543999 -0.0111416 0)
(-0.0523298 -0.0118318 0)
(-0.0501394 -0.0124517 0)
(-0.0478411 -0.012996 0)
(-0.0454483 -0.0134598 0)
(-0.0429753 -0.0138383 0)
(-0.0404369 -0.0141272 0)
(-0.0378488 -0.0143227 0)
(-0.0352272 -0.0144213 0)
(-0.0325887 -0.0144202 0)
(-0.0299504 -0.0143171 0)
(-0.0273296 -0.0141107 0)
(-0.0247439 -0.0138002 0)
(-0.0222106 -0.0133861 0)
(-0.0197471 -0.0128697 0)
(-0.0173704 -0.0122536 0)
(-0.0150968 -0.0115421 0)
(-0.0129421 -0.0107408 0)
(-0.0109211 -0.00985722 0)
(-0.00904735 -0.00890118 0)
(-0.00733304 -0.00788487 0)
(-0.00578868 -0.00682334 0)
(-0.00442281 -0.00573494 0)
(-0.00324168 -0.00464177 0)
(-0.00224877 -0.00357023 0)
(-0.00144423 -0.00255145 0)
(-0.000823953 -0.00162185 0)
(-0.000377517 -0.000823315 0)
(-8.79118e-05 -0.000203023 0)
(-0.000111531 0.000355502 0)
(-0.000475337 0.00126522 0)
(-0.00102505 0.00233707 0)
(-0.00177532 0.00352286 0)
(-0.00273316 0.0047796 0)
(-0.00389873 0.00606992 0)
(-0.00526797 0.00736192 0)
(-0.00683369 0.00862873 0)
(-0.00858636 0.00984807 0)
(-0.0105145 0.0110017 0)
(-0.0126051 0.0120749 0)
(-0.0148438 0.0130561 0)
(-0.0172153 0.0139364 0)
(-0.0197033 0.0147091 0)
(-0.022291 0.0153694 0)
(-0.024961 0.0159144 0)
(-0.0276957 0.0163424 0)
(-0.0304772 0.0166532 0)
(-0.0332878 0.0168472 0)
(-0.0361099 0.016926 0)
(-0.0389259 0.0168919 0)
(-0.0417187 0.0167478 0)
(-0.0444718 0.016497 0)
(-0.0471689 0.0161434 0)
(-0.0497945 0.0156912 0)
(-0.0523337 0.015145 0)
(-0.0547721 0.0145096 0)
(-0.0570963 0.01379 0)
(-0.0592937 0.0129915 0)
(-0.0613522 0.0121195 0)
(-0.0632608 0.0111796 0)
(-0.0650094 0.0101775 0)
(-0.0665887 0.00911902 0)
(-0.0679903 0.00801009 0)
(-0.0692069 0.00685679 0)
(-0.070232 0.00566527 0)
(-0.0710601 0.0044418 0)
(-0.0716867 0.00319274 0)
(-0.0721085 0.00192454 0)
(-0.0723228 0.00064375 0)
(-0.0723284 -0.00064299 0)
(-0.0721249 -0.00192896 0)
(-0.0717129 -0.00320737 0)
(-0.0710942 -0.00447134 0)
(-0.0702717 -0.00571395 0)
(-0.0692492 -0.00692825 0)
(-0.0680317 -0.00810722 0)
(-0.0666253 -0.00924388 0)
(-0.0650372 -0.0103312 0)
(-0.0632755 -0.0113624 0)
(-0.0613495 -0.0123304 0)
(-0.0592696 -0.0132286 0)
(-0.057047 -0.0140504 0)
(-0.0546941 -0.0147893 0)
(-0.0522242 -0.0154392 0)
(-0.0496513 -0.0159944 0)
(-0.0469904 -0.0164493 0)
(-0.0442575 -0.0167988 0)
(-0.0414689 -0.0170384 0)
(-0.0386419 -0.0171642 0)
(-0.0357939 -0.0171728 0)
(-0.0329432 -0.0170617 0)
(-0.0301081 -0.0168292 0)
(-0.027307 -0.0164746 0)
(-0.0245587 -0.0159984 0)
(-0.0218814 -0.0154021 0)
(-0.0192933 -0.0146889 0)
(-0.016812 -0.0138635 0)
(-0.0144544 -0.0129324 0)
(-0.0122365 -0.0119042 0)
(-0.0101733 -0.0107897 0)
(-0.00827839 -0.00960269 0)
(-0.00656371 -0.00835967 0)
(-0.00503943 -0.00708072 0)
(-0.00371354 -0.00578971 0)
(-0.00259139 -0.00451481 0)
(-0.00167504 -0.0032889 0)
(-0.000962215 -0.00214985 0)
(-0.000443914 -0.00114067 0)
(-0.000103798 -0.000309034 0)
(-0.000127562 0.000487051 0)
(-0.000542277 0.0016516 0)
(-0.00116449 0.00297037 0)
(-0.00200818 0.00439524 0)
(-0.00307884 0.00588279 0)
(-0.00437462 0.00739483 0)
(-0.00588938 0.00889836 0)
(-0.0076139 0.0103654 0)
(-0.00953672 0.0117723 0)
(-0.0116446 0.0130998 0)
(-0.013923 0.0143321 0)
(-0.016356 0.0154567 0)
(-0.0189269 0.0164637 0)
(-0.0216183 0.0173459 0)
(-0.0244121 0.018098 0)
(-0.0272899 0.0187168 0)
(-0.0302329 0.0192004 0)
(-0.0332223 0.0195484 0)
(-0.0362394 0.0197615 0)
(-0.0392655 0.0198414 0)
(-0.0422824 0.0197907 0)
(-0.045272 0.0196127 0)
(-0.0482169 0.0193113 0)
(-0.0511 0.0188908 0)
(-0.0539051 0.0183561 0)
(-0.0566164 0.0177124 0)
(-0.059219 0.0169654 0)
(-0.0616988 0.0161208 0)
(-0.0640424 0.0151846 0)
(-0.0662373 0.0141632 0)
(-0.068272 0.013063 0)
(-0.0701358 0.0118907 0)
(-0.0718189 0.0106529 0)
(-0.0733125 0.00935655 0)
(-0.074609 0.00800874 0)
(-0.0757016 0.00661659 0)
(-0.0765845 0.00518737 0)
(-0.0772529 0.00372845 0)
(-0.0777034 0.00224734 0)
(-0.0779332 0.000751635 0)
(-0.0779409 -0.000750969 0)
(-0.0777261 -0.00225267 0)
(-0.0772895 -0.00374558 0)
(-0.0766329 -0.00522173 0)
(-0.0757592 -0.0066731 0)
(-0.0746726 -0.00809161 0)
(-0.0733783 -0.00946915 0)
(-0.0718825 -0.0107976 0)
(-0.0701928 -0.0120689 0)
(-0.0683177 -0.013275 0)
(-0.066267 -0.014408 0)
(-0.0640514 -0.01546 0)
(-0.0616827 -0.0164234 0)
(-0.0591739 -0.0172909 0)
(-0.0565389 -0.0180553 0)
(-0.0537924 -0.01871 0)
(-0.0509503 -0.0192484 0)
(-0.0480291 -0.019665 0)
(-0.045046 -0.0199543 0)
(-0.0420192 -0.0201119 0)
(-0.0389672 -0.0201339 0)
(-0.0359089 -0.0200174 0)
(-0.0328637 -0.0197606 0)
(-0.0298513 -0.0193625 0)
(-0.0268912 -0.0188237 0)
(-0.0240029 -0.018146 0)
(-0.0212057 -0.0173329 0)
(-0.0185184 -0.0163896 0)
(-0.0159592 -0.0153235 0)
(-0.0135454 -0.0141439 0)
(-0.0112934 -0.0128631 0)
(-0.00921816 -0.0114958 0)
(-0.00733339 -0.01006 0)
(-0.00565095 -0.00857736 0)
(-0.00418064 -0.00707326 0)
(-0.00292978 -0.00557738 0)
(-0.00190237 -0.00412402 0)
(-0.00109797 -0.00275218 0)
(-0.000508901 -0.00150562 0)
(-0.000119326 -0.000432206 0)
(-0.000143156 0.000635765 0)
(-0.000607473 0.00208567 0)
(-0.00130067 0.0036782 0)
(-0.00223621 0.00536557 0)
(-0.00341817 0.00710417 0)
(-0.00484279 0.00885531 0)
(-0.00650181 0.0105852 0)
(-0.00838393 0.012265 0)
(-0.0104757 0.0138701 0)
(-0.0127621 0.0153803 0)
(-0.0152269 0.0167788 0)
(-0.0178526 0.0180523 0)
(-0.0206211 0.0191903 0)
(-0.0235137 0.0201851 0)
(-0.026511 0.021031 0)
(-0.0295936 0.0217244 0)
(-0.0327416 0.0222633 0)
(-0.0359352 0.0226474 0)
(-0.0391546 0.0228775 0)
(-0.0423805 0.0229556 0)
(-0.0455935 0.0228845 0)
(-0.0487749 0.0226679 0)
(-0.0519064 0.0223103 0)
(-0.0549703 0.0218167 0)
(-0.0579495 0.0211926 0)
(-0.0608277 0.0204439 0)
(-0.0635892 0.019577 0)
(-0.0662194 0.0185984 0)
(-0.0687044 0.0175152 0)
(-0.071031 0.0163345 0)
(-0.0731874 0.0150636 0)
(-0.0751622 0.0137101 0)
(-0.0769455 0.0122817 0)
(-0.078528 0.0107863 0)
(-0.0799018 0.00923203 0)
(-0.0810596 0.00762699 0)
(-0.0819956 0.00597952 0)
(-0.0827049 0.00429805 0)
(-0.0831835 0.00259118 0)
(-0.0834289 0.000867597 0)
(-0.0834395 -0.000863887 0)
(-0.0832147 -0.00259435 0)
(-0.0827554 -0.00431477 0)
(-0.0820633 -0.00601603 0)
(-0.0811416 -0.00768897 0)
(-0.0799944 -0.00932433 0)
(-0.078627 -0.0109128 0)
(-0.0770462 -0.0124453 0)
(-0.0752596 -0.0139123 0)
(-0.0732761 -0.0153048 0)
(-0.0711057 -0.0166138 0)
(-0.0687598 -0.0178302 0)
(-0.0662506 -0.0189453 0)
(-0.0635915 -0.0199508 0)
(-0.0607969 -0.0208386 0)
(-0.0578824 -0.0216008 0)
(-0.0548643 -0.0222303 0)
(-0.0517599 -0.0227205 0)
(-0.0485873 -0.0230654 0)
(-0.0453654 -0.0232598 0)
(-0.0421134 -0.0232993 0)
(-0.0388514 -0.0231806 0)
(-0.0355996 -0.0229015 0)
(-0.0323787 -0.022461 0)
(-0.0292093 -0.0218596 0)
(-0.0261121 -0.0210994 0)
(-0.0231074 -0.020184 0)
(-0.0202154 -0.0191193 0)
(-0.0174554 -0.0179132 0)
(-0.0148463 -0.0165761 0)
(-0.0124059 -0.015121 0)
(-0.0101508 -0.0135639 0)
(-0.00809628 -0.0119241 0)
(-0.0062561 -0.0102245 0)
(-0.00464198 -0.00849189 0)
(-0.0032632 -0.0067572 0)
(-0.00212574 -0.00505586 0)
(-0.00123096 -0.00342779 0)
(-0.000572375 -0.00191725 0)
(-0.000134471 -0.000572092 0)
(-0.000158319 0.000801145 0)
(-0.000670939 0.00256631 0)
(-0.00143356 0.00445913 0)
(-0.00245928 0.00643229 0)
(-0.00375092 0.00844222 0)
(-0.00530281 0.0104499 0)
(-0.00710464 0.0124212 0)
(-0.00914302 0.0143264 0)
(-0.0114025 0.0161402 0)
(-0.0138661 0.0178417 0)
(-0.0165159 0.0194134 0)
(-0.0193328 0.0208413 0)
(-0.0222973 0.0221145 0)
(-0.0253892 0.0232247 0)
(-0.028588 0.0241659 0)
(-0.0318729 0.0249344 0)
(-0.0352231 0.0255282 0)
(-0.0386178 0.0259469 0)
(-0.0420364 0.0261916 0)
(-0.0454583 0.0262644 0)
(-0.0488637 0.0261688 0)
(-0.0522328 0.0259088 0)
(-0.0555467 0.0254895 0)
(-0.058787 0.0249165 0)
(-0.0619359 0.0241959 0)
(-0.0649765 0.0233346 0)
(-0.0678926 0.0223397 0)
(-0.0706689 0.0212185 0)
(-0.0732911 0.019979 0)
(-0.0757456 0.0186292 0)
(-0.0780199 0.0171775 0)
(-0.0801025 0.0156323 0)
(-0.081983 0.0140024 0)
(-0.0836518 0.0122968 0)
(-0.0851006 0.0105245 0)
(-0.0863221 0.00869481 0)
(-0.08731 0.0068171 0)
(-0.0880593 0.00490092 0)
(-0.088566 0.00295598 0)
(-0.0888273 0.000992103 0)
(-0.0888415 -0.000980744 0)
(-0.0886081 -0.00295248 0)
(-0.0881278 -0.0049129 0)
(-0.0874026 -0.00685173 0)
(-0.0864355 -0.00875857 0)
(-0.0852308 -0.010623 0)
(-0.0837941 -0.0124345 0)
(-0.082132 -0.0141827 0)