/*--------------------------------*- C++ -*----------------------------------*\
| =========                 |                                                 |
| \\      /  F ield         | OpenFOAM: The Open Source CFD Toolbox           |
|  \\    /   O peration     | Version:  4.1                                   |
|   \\  /    A nd           | Web:      www.OpenFOAM.org                      |
|    \\/     M anipulation  |                                                 |
\*---------------------------------------------------------------------------*/
FoamFile
{
    version     2.0;
    format      ascii;
    class       volVectorField;
    location    "0.0135";
    object      U;
}
// * * * * * * * * * * * * * * * * * * * * * * * * * * * * * * * * * * * * * //

dimensions      [0 1 -1 0 0 0 0];

internalField   nonuniform List<vector> 
6400
(
(3.16642e-06 -3.16273e-06 0)
(1.09056e-05 -6.63513e-07 0)
(1.15602e-05 6.38491e-06 0)
(1.06676e-06 1.64395e-05 0)
(-2.26178e-05 2.8017e-05 0)
(-6.00743e-05 4.00547e-05 0)
(-0.000111007 5.18293e-05 0)
(-0.000174587 6.28738e-05 0)
(-0.000249684 7.29066e-05 0)
(-0.000335006 8.17767e-05 0)
(-0.000429197 8.94219e-05 0)
(-0.000530893 9.58379e-05 0)
(-0.000638765 0.000101056 0)
(-0.000751536 0.00010513 0)
(-0.000868001 0.000108124 0)
(-0.000987031 0.000110109 0)
(-0.00110758 0.00011116 0)
(-0.00122868 0.000111349 0)
(-0.00134944 0.000110748 0)
(-0.00146906 0.000109426 0)
(-0.00158679 0.000107448 0)
(-0.00170198 0.000104876 0)
(-0.00181403 0.000101767 0)
(-0.00192238 9.81733e-05 0)
(-0.00202655 9.41443e-05 0)
(-0.0021261 8.97244e-05 0)
(-0.00222064 8.49542e-05 0)
(-0.00230983 7.98709e-05 0)
(-0.00239334 7.45084e-05 0)
(-0.00247089 6.88974e-05 0)
(-0.00254225 6.30661e-05 0)
(-0.0026072 5.70402e-05 0)
(-0.00266553 5.08434e-05 0)
(-0.00271708 4.44975e-05 0)
(-0.00276171 3.8023e-05 0)
(-0.00279929 3.14391e-05 0)
(-0.00282971 2.47638e-05 0)
(-0.00285289 1.80148e-05 0)
(-0.00286876 1.12089e-05 0)
(-0.00287727 4.36302e-06 0)
(-0.00287838 -2.50636e-06 0)
(-0.00287208 -9.38239e-06 0)
(-0.00285837 -1.6248e-05 0)
(-0.00283727 -2.30854e-05 0)
(-0.00280882 -2.98763e-05 0)
(-0.00277308 -3.66012e-05 0)
(-0.00273013 -4.32397e-05 0)
(-0.00268007 -4.97699e-05 0)
(-0.00262303 -5.61682e-05 0)
(-0.00255916 -6.24093e-05 0)
(-0.00248863 -6.84658e-05 0)
(-0.00241167 -7.43078e-05 0)
(-0.00232851 -7.99032e-05 0)
(-0.00223942 -8.52166e-05 0)
(-0.00214473 -9.02099e-05 0)
(-0.0020448 -9.48416e-05 0)
(-0.00194003 -9.90667e-05 0)
(-0.00183088 -0.000102836 0)
(-0.00171785 -0.000106099 0)
(-0.00160152 -0.000108797 0)
(-0.00148252 -0.000110871 0)
(-0.00136153 -0.000112259 0)
(-0.00123934 -0.000112892 0)
(-0.00111678 -0.000112702 0)
(-0.00099478 -0.000111617 0)
(-0.000874334 -0.000109565 0)
(-0.000756522 -0.000106475 0)
(-0.000642504 -0.00010228 0)
(-0.000533511 -9.69174e-05 0)
(-0.000430839 -9.03406e-05 0)
(-0.000335835 -8.25238e-05 0)
(-0.00024987 -7.34783e-05 0)
(-0.000174304 -6.32737e-05 0)
(-0.000110421 -5.20686e-05 0)
(-5.93424e-05 -4.01526e-05 0)
(-2.18736e-05 -2.80002e-05 0)
(1.7167e-06 -1.6342e-05 0)
(1.20436e-05 -6.24822e-06 0)
(1.11875e-05 7.90573e-07 0)
(3.2475e-06 3.22931e-06 0)
(6.88496e-07 -1.09126e-05 0)
(7.23966e-07 -6.12403e-07 0)
(-1.90419e-05 3.08637e-05 0)
(-6.75095e-05 7.40449e-05 0)
(-0.000149536 0.000122648 0)
(-0.000266759 0.000172544 0)
(-0.000418719 0.00022103 0)
(-0.000603585 0.000266381 0)
(-0.000818675 0.00030755 0)
(-0.00106081 0.000343963 0)
(-0.00132659 0.000375372 0)
(-0.00161249 0.000401749 0)
(-0.00191507 0.000423208 0)
(-0.00223095 0.000439953 0)
(-0.00255691 0.00045224 0)
(-0.00288992 0.000460356 0)
(-0.00322714 0.000464599 0)
(-0.00356592 0.000465271 0)
(-0.00390382 0.000462665 0)
(-0.00423861 0.000457067 0)
(-0.00456823 0.000448744 0)
(-0.00489083 0.000437952 0)
(-0.00520471 0.000424928 0)
(-0.00550835 0.00040989 0)
(-0.00580036 0.000393041 0)
(-0.00607951 0.000374565 0)
(-0.00634467 0.000354633 0)
(-0.00659485 0.000333398 0)
(-0.00682916 0.000311002 0)
(-0.0070468 0.000287572 0)
(-0.00724707 0.000263225 0)
(-0.00742934 0.000238068 0)
(-0.00759306 0.000212201 0)
(-0.00773774 0.000185715 0)
(-0.00786297 0.000158693 0)
(-0.00796839 0.000131217 0)
(-0.00805371 0.000103361 0)
(-0.00811866 7.52003e-05 0)
(-0.00816307 4.6804e-05 0)
(-0.00818678 1.82422e-05 0)
(-0.0081897 -1.04157e-05 0)
(-0.0081718 -3.90997e-05 0)
(-0.00813308 -6.77387e-05 0)
(-0.0080736 -9.62589e-05 0)
(-0.00799349 -0.000124584 0)
(-0.00789291 -0.000152633 0)
(-0.00777211 -0.000180321 0)
(-0.00763137 -0.000207558 0)
(-0.00747106 -0.000234244 0)
(-0.00729163 -0.000260276 0)
(-0.00709358 -0.00028554 0)
(-0.00687753 -0.000309912 0)
(-0.00664417 -0.000333258 0)
(-0.00639429 -0.000355433 0)
(-0.00612879 -0.000376278 0)
(-0.0058487 -0.00039562 0)
(-0.00555517 -0.000413275 0)
(-0.00524948 -0.000429039 0)
(-0.00493306 -0.000442696 0)
(-0.00460753 -0.000454014 0)
(-0.00427463 -0.000462745 0)
(-0.00393631 -0.000468625 0)
(-0.00359471 -0.00047138 0)
(-0.00325215 -0.000470722 0)
(-0.00291115 -0.000466359 0)
(-0.00257445 -0.000457995 0)
(-0.00224498 -0.00044534 0)
(-0.00192583 -0.000428122 0)
(-0.00162031 -0.0004061 0)
(-0.00133182 -0.00037909 0)
(-0.00106387 -0.000347003 0)
(-0.000819991 -0.000309896 0)
(-0.000603595 -0.000268043 0)
(-0.000417848 -0.000222051 0)
(-0.000265399 -0.000172996 0)
(-0.000148032 -0.000122635 0)
(-6.61362e-05 -7.37015e-05 0)
(-1.79944e-05 -3.03534e-05 0)
(1.34185e-06 1.09763e-06 0)
(8.63367e-07 1.11605e-05 0)
(-6.33163e-06 -1.16838e-05 0)
(-3.0514e-05 1.90647e-05 0)
(-8.72513e-05 8.7734e-05 0)
(-0.00018716 0.000177423 0)
(-0.000336494 0.000276711 0)
(-0.000537561 0.000377984 0)
(-0.0007899 0.000476206 0)
(-0.00109109 0.000568119 0)
(-0.00143743 0.0006517 0)
(-0.0018244 0.000725799 0)
(-0.00224706 0.000789877 0)
(-0.00270027 0.000843816 0)
(-0.00317888 0.000887791 0)
(-0.00367785 0.000922164 0)
(-0.00419232 0.000947415 0)
(-0.00471765 0.000964095 0)
(-0.00524949 0.00097279 0)
(-0.00578376 0.000974096 0)
(-0.00631667 0.000968606 0)
(-0.00684474 0.000956892 0)
(-0.00736476 0.000939505 0)
(-0.00787381 0.000916962 0)
(-0.0083692 0.000889751 0)
(-0.00884854 0.000858325 0)
(-0.00930962 0.000823099 0)
(-0.00975048 0.00078446 0)
(-0.0101693 0.00074276 0)
(-0.0105646 0.00069832 0)
(-0.0109348 0.000651435 0)
(-0.0112788 0.000602373 0)
(-0.0115952 0.000551381 0)
(-0.0118833 0.000498684 0)
(-0.0121421 0.000444489 0)
(-0.0123707 0.00038899 0)
(-0.0125686 0.000332364 0)
(-0.0127352 0.000274783 0)
(-0.0128699 0.000216405 0)
(-0.0129724 0.000157386 0)
(-0.0130424 9.78749e-05 0)
(-0.0130797 3.80197e-05 0)
(-0.0130841 -2.2033e-05 0)
(-0.0130555 -8.21352e-05 0)
(-0.012994 -0.000142136 0)
(-0.0128997 -0.000201881 0)
(-0.0127727 -0.000261208 0)
(-0.0126135 -0.000319948 0)
(-0.0124222 -0.000377921 0)
(-0.0121995 -0.000434935 0)
(-0.0119458 -0.000490787 0)
(-0.011662 -0.000545255 0)
(-0.0113489 -0.000598101 0)
(-0.0110074 -0.000649067 0)
(-0.0106386 -0.000697872 0)
(-0.0102438 -0.000744213 0)
(-0.0098245 -0.000787761 0)
(-0.00938228 -0.000828156 0)
(-0.00891896 -0.000865013 0)
(-0.00843661 -0.000897914 0)
(-0.00793748 -0.000926411 0)
(-0.0074241 -0.000950026 0)
(-0.00689925 -0.000968249 0)
(-0.00636596 -0.000980544 0)
(-0.00582756 -0.00098635 0)
(-0.00528769 -0.000985089 0)
(-0.00475025 -0.000976172 0)
(-0.00421944 -0.000959012 0)
(-0.00369975 -0.000933041 0)
(-0.00319591 -0.000897735 0)
(-0.00271289 -0.000852647 0)
(-0.0022558 -0.000797455 0)
(-0.00182985 -0.000732035 0)
(-0.00144022 -0.000656556 0)
(-0.00109186 -0.000571614 0)
(-0.000789264 -0.000478421 0)
(-0.000536093 -0.00037906 0)
(-0.000334695 -0.000276851 0)
(-0.000185439 -0.000176889 0)
(-8.59037e-05 -8.68445e-05 0)
(-2.97069e-05 -1.81881e-05 0)
(-6.10132e-06 1.2136e-05 0)
(-1.63484e-05 -1.48036e-06 0)
(-7.3412e-05 6.7143e-05 0)
(-0.00017642 0.000187463 0)
(-0.000335933 0.000336956 0)
(-0.000558315 0.000499667 0)
(-0.000845844 0.000664574 0)
(-0.00119782 0.000824213 0)
(-0.00161132 0.000973647 0)
(-0.00208184 0.00110974 0)
(-0.00260389 0.00123065 0)
(-0.00317135 0.00133545 0)
(-0.00377781 0.00142387 0)
(-0.00441681 0.00149611 0)
(-0.00508194 0.00155267 0)
(-0.00576701 0.00159426 0)
(-0.00646606 0.00162175 0)
(-0.00717347 0.00163603 0)
(-0.00788394 0.00163805 0)
(-0.00859254 0.00162876 0)
(-0.00929469 0.00160909 0)
(-0.00998618 0.00157994 0)
(-0.0106631 0.00154214 0)
(-0.0113221 0.0014965 0)
(-0.0119597 0.00144377 0)
(-0.0125731 0.00138464 0)
(-0.0131597 0.00131975 0)
(-0.0137172 0.00124969 0)
(-0.0142432 0.00117499 0)
(-0.014736 0.00109616 0)
(-0.0151939 0.00101364 0)
(-0.0156152 0.000927852 0)
(-0.0159987 0.000839173 0)
(-0.0163432 0.000747956 0)
(-0.0166476 0.000654528 0)
(-0.016911 0.000559194 0)
(-0.0171326 0.000462241 0)
(-0.0173119 0.000363943 0)
(-0.0174482 0.000264562 0)
(-0.0175412 0.000164353 0)
(-0.0175906 6.35686e-05 0)
(-0.0175961 -3.75428e-05 0)
(-0.0175578 -0.000138729 0)
(-0.0174755 -0.000239734 0)
(-0.0173496 -0.000340294 0)
(-0.0171802 -0.000440135 0)
(-0.0169677 -0.000538969 0)
(-0.0167127 -0.000636492 0)
(-0.0164158 -0.000732381 0)
(-0.0160778 -0.00082629 0)
(-0.0156997 -0.000917845 0)
(-0.0152827 -0.00100665 0)
(-0.0148279 -0.00109226 0)
(-0.0143369 -0.00117421 0)
(-0.0138115 -0.00125199 0)
(-0.0132535 -0.00132506 0)
(-0.0126652 -0.0013928 0)
(-0.012049 -0.00145458 0)
(-0.0114076 -0.00150971 0)
(-0.010744 -0.00155744 0)
(-0.0100616 -0.00159698 0)
(-0.00936408 -0.00162751 0)
(-0.00865538 -0.00164813 0)
(-0.0079399 -0.00165794 0)
(-0.00722239 -0.001656 0)
(-0.00650795 -0.00164138 0)
(-0.00580201 -0.00161314 0)
(-0.00511037 -0.00157039 0)
(-0.00443911 -0.00151234 0)
(-0.00379454 -0.00143832 0)
(-0.00318316 -0.0013479 0)
(-0.00261152 -0.00124094 0)
(-0.00208607 -0.00111782 0)
(-0.00161292 -0.000979538 0)
(-0.00119758 -0.000828044 0)
(-0.000844462 -0.000666569 0)
(-0.000556421 -0.000500144 0)
(-0.00033404 -0.000336328 0)
(-0.000174904 -0.000186226 0)
(-7.24915e-05 -6.5872e-05 0)
(-1.60827e-05 2.14703e-06 0)
(-2.79233e-05 2.17262e-05 0)
(-0.000121904 0.000148509 0)
(-0.000275625 0.000336417 0)
(-0.000498771 0.000559217 0)
(-0.000796983 0.000797451 0)
(-0.00117188 0.00103716 0)
(-0.00162217 0.0012686 0)
(-0.00214426 0.00148516 0)
(-0.00273296 0.00168255 0)
(-0.00338193 0.00185818 0)
(-0.0040841 0.00201067 0)
(-0.00483208 0.00213956 0)
(-0.00561831 0.00224503 0)
(-0.0064353 0.00232771 0)
(-0.00727575 0.00238856 0)
(-0.00813263 0.00242872 0)
(-0.00899925 0.00244947 0)
(-0.00986928 0.00245214 0)
(-0.0107368 0.00243807 0)
(-0.0115964 0.0024086 0)
(-0.0124428 0.00236502 0)
(-0.0132714 0.00230856 0)
(-0.014078 0.00224039 0)
(-0.0148586 0.00216161 0)
(-0.0156097 0.00207324 0)
(-0.0163279 0.00197622 0)
(-0.0170104 0.00187143 0)
(-0.0176547 0.00175968 0)
(-0.0182582 0.00164169 0)
(-0.0188189 0.00151816 0)
(-0.0193349 0.00138969 0)
(-0.0198046 0.00125686 0)
(-0.0202265 0.00112021 0)
(-0.0205993 0.000980228 0)
(-0.0209218 0.000837369 0)
(-0.0211932 0.000692073 0)
(-0.0214126 0.000544752 0)
(-0.0215794 0.000395804 0)
(-0.0216931 0.000245616 0)
(-0.0217533 9.45682e-05 0)
(-0.0217598 -5.69609e-05 0)
(-0.0217124 -0.00020859 0)
(-0.0216113 -0.000359933 0)
(-0.0214566 -0.00051059 0)
(-0.0212487 -0.000660147 0)
(-0.0209881 -0.000808169 0)
(-0.0206753 -0.0009542 0)
(-0.0203113 -0.00109775 0)
(-0.019897 -0.0012383 0)
(-0.0194336 -0.00137529 0)
(-0.0189226 -0.00150812 0)
(-0.0183654 -0.00163614 0)
(-0.0177641 -0.00175864 0)
(-0.0171206 -0.00187487 0)
(-0.0164375 -0.001984 0)
(-0.0157173 -0.00208515 0)
(-0.014963 -0.00217736 0)
(-0.014178 -0.00225961 0)
(-0.013366 -0.00233081 0)
(-0.0125311 -0.0023898 0)
(-0.0116776 -0.00243536 0)
(-0.0108104 -0.00246621 0)
(-0.00993492 -0.00248104 0)
(-0.0090567 -0.00247851 0)
(-0.00818191 -0.00245728 0)
(-0.00731702 -0.00241603 0)
(-0.00646892 -0.00235354 0)
(-0.00564478 -0.00226871 0)
(-0.00485206 -0.00216069 0)
(-0.00409835 -0.00202892 0)
(-0.00339128 -0.00187333 0)
(-0.00273832 -0.00169452 0)
(-0.00214653 -0.00149397 0)
(-0.00162222 -0.00127444 0)
(-0.00117056 -0.00104035 0)
(-0.000795004 -0.000798446 0)
(-0.000496734 -0.000558592 0)
(-0.000273969 -0.000334873 0)
(-0.000120889 -0.000146848 0)
(-2.76269e-05 -2.08388e-05 0)
(-4.00626e-05 5.85843e-05 0)
(-0.000172156 0.000265049 0)
(-0.000377876 0.000537365 0)
(-0.000665723 0.000847167 0)
(-0.00104017 0.00117259 0)
(-0.00150177 0.0014974 0)
(-0.00204825 0.0018099 0)
(-0.00267522 0.00210198 0)
(-0.00337669 0.00236822 0)
(-0.00414553 0.00260528 0)
(-0.00497386 0.00281134 0)
(-0.00585342 0.0029857 0)
(-0.00677578 0.00312852 0)
(-0.00773254 0.00324055 0)
(-0.00871548 0.00332298 0)
(-0.00971667 0.00337726 0)
(-0.0107285 0.00340505 0)
(-0.0117438 0.00340808 0)
(-0.0127559 0.00338815 0)
(-0.0137584 0.00334702 0)
(-0.0147454 0.00328642 0)
(-0.0157116 0.00320803 0)
(-0.0166521 0.00311342 0)
(-0.0175622 0.00300409 0)
(-0.0184379 0.00288143 0)
(-0.0192754 0.00274675 0)
(-0.0200712 0.00260124 0)
(-0.0208224 0.00244601 0)
(-0.0215262 0.00228209 0)
(-0.02218 0.00211041 0)
(-0.0227818 0.00193184 0)
(-0.0233295 0.00174718 0)
(-0.0238214 0.00155717 0)
(-0.024256 0.0013625 0)
(-0.0246321 0.00116381 0)
(-0.0249484 0.000961717 0)
(-0.0252042 0.000756797 0)
(-0.0253985 0.000549609 0)
(-0.0255308 0.000340696 0)
(-0.0256007 0.000130593 0)
(-0.0256079 -8.01698e-05 0)
(-0.0255523 -0.000291058 0)
(-0.0254341 -0.000501528 0)
(-0.0252533 -0.000711021 0)
(-0.0250104 -0.000918956 0)
(-0.024706 -0.00112473 0)
(-0.0243409 -0.00132769 0)
(-0.0239161 -0.00152717 0)
(-0.0234326 -0.00172244 0)
(-0.0228919 -0.00191272 0)
(-0.0222957 -0.00209717 0)
(-0.0216458 -0.00227488 0)
(-0.0209445 -0.00244489 0)
(-0.0201942 -0.00260615 0)
(-0.0193976 -0.00275751 0)
(-0.0185579 -0.00289776 0)
(-0.0176786 -0.00302558 0)
(-0.0167636 -0.00313958 0)
(-0.0158171 -0.00323827 0)
(-0.0148439 -0.00332007 0)
(-0.013849 -0.00338333 0)
(-0.012838 -0.00342632 0)
(-0.0118171 -0.00344728 0)
(-0.0107926 -0.00344443 0)
(-0.00977168 -0.00341599 0)
(-0.00876158 -0.00336025 0)
(-0.00777011 -0.00327562 0)
(-0.00680539 -0.00316071 0)
(-0.00587579 -0.00301445 0)
(-0.00498983 -0.00283622 0)
(-0.00415604 -0.002626 0)
(-0.00338274 -0.00238466 0)
(-0.00267781 -0.00211419 0)
(-0.00204837 -0.00181812 0)
(-0.00150033 -0.00150204 0)
(-0.001038 -0.00117425 0)
(-0.000663471 -0.000846622 0)
(-0.00037604 -0.000535536 0)
(-0.000171028 -0.000262991 0)
(-3.97304e-05 -5.74658e-05 0)
(-5.21226e-05 0.000108957 0)
(-0.000221795 0.000416798 0)
(-0.000478819 0.000790682 0)
(-0.000830456 0.00120129 0)
(-0.00127983 0.0016253 0)
(-0.00182616 0.0020449 0)
(-0.00246601 0.00244689 0)
(-0.00319397 0.00282188 0)
(-0.00400315 0.0031635 0)
(-0.00488561 0.0034677 0)
(-0.0058327 0.00373222 0)
(-0.00683538 0.00395618 0)
(-0.00788445 0.00413968 0)
(-0.00897073 0.00428362 0)
(-0.0100852 0.00438939 0)
(-0.0112192 0.00445879 0)
(-0.0123644 0.00449385 0)
(-0.0135128 0.00449676 0)
(-0.0146571 0.00446975 0)
(-0.0157901 0.00441507 0)
(-0.0169054 0.00433493 0)
(-0.017997 0.00423146 0)
(-0.0190593 0.0041067 0)
(-0.0200874 0.00396257 0)
(-0.0210764 0.00380089 0)
(-0.0220223 0.00362335 0)
(-0.0229211 0.00343151 0)
(-0.0237695 0.00322683 0)
(-0.0245643 0.00301064 0)
(-0.0253028 0.00278419 0)
(-0.0259824 0.00254861 0)
(-0.0266009 0.00230496 0)
(-0.0271564 0.00205421 0)
(-0.0276472 0.00179729 0)
(-0.0280718 0.00153505 0)
(-0.0284289 0.0012683 0)
(-0.0287175 0.000997805 0)
(-0.0289368 0.000724313 0)
(-0.029086 0.000448545 0)
(-0.0291646 0.000171212 0)
(-0.0291725 -0.000106981 0)
(-0.0291094 -0.000385322 0)
(-0.0289755 -0.00066309 0)
(-0.0287709 -0.000939541 0)
(-0.0284963 -0.00121391 0)
(-0.0281522 -0.00148538 0)
(-0.0277395 -0.00175311 0)
(-0.0272593 -0.00201621 0)
(-0.0267129 -0.0022737 0)
(-0.026102 -0.00252455 0)
(-0.0254284 -0.00276768 0)
(-0.0246943 -0.00300188 0)
(-0.0239021 -0.00322587 0)
(-0.0230546 -0.00343828 0)
(-0.022155 -0.00363762 0)
(-0.0212067 -0.0038223 0)
(-0.0202137 -0.0039906 0)
(-0.0191803 -0.00414071 0)
(-0.0181114 -0.0042707 0)
(-0.0170121 -0.00437853 0)
(-0.0158883 -0.00446207 0)
(-0.014746 -0.00451913 0)
(-0.0135921 -0.00454745 0)
(-0.0124338 -0.00454477 0)
(-0.0112787 -0.00450886 0)
(-0.010135 -0.00443758 0)
(-0.0090112 -0.00432898 0)
(-0.00791627 -0.00418136 0)
(-0.00685934 -0.00399344 0)
(-0.00584971 -0.00376452 0)
(-0.0048967 -0.00349466 0)
(-0.0040094 -0.00318496 0)
(-0.00319649 -0.00283791 0)
(-0.00246587 -0.00245778 0)
(-0.00182437 -0.00205118 0)
(-0.00127728 -0.00162774 0)
(-0.000827865 -0.00120086 0)
(-0.000476724 -0.000788557 0)
(-0.000220512 -0.000414314 0)
(-5.17441e-05 -0.000107587 0)
(-6.3717e-05 0.000172267 0)
(-0.000269427 0.000602661 0)
(-0.000575873 0.00109516 0)
(-0.000989157 0.00162031 0)
(-0.00151101 0.00215413 0)
(-0.00213921 0.00267781 0)
(-0.00286904 0.00317713 0)
(-0.00369393 0.00364174 0)
(-0.00460599 0.00406447 0)
(-0.00559642 0.0044407 0)
(-0.00665578 0.00476782 0)
(-0.00777429 0.00504474 0)
(-0.00894204 0.00527159 0)
(-0.0101491 0.00544938 0)
(-0.0113859 0.00557976 0)
(-0.0126431 0.00566487 0)
(-0.0139115 0.00570715 0)
(-0.0151827 0.00570921 0)
(-0.0164485 0.0056738 0)
(-0.0177015 0.00560364 0)
(-0.0189346 0.00550146 0)
(-0.0201411 0.00536988 0)
(-0.0213151 0.00521142 0)
(-0.022451 0.00502849 0)
(-0.0235437 0.00482334 0)
(-0.0245886 0.00459809 0)
(-0.0255815 0.00435469 0)
(-0.0265186 0.00409499 0)
(-0.0273965 0.00382067 0)
(-0.0282121 0.00353329 0)
(-0.0289627 0.00323429 0)
(-0.0296458 0.00292502 0)
(-0.0302593 0.00260673 0)
(-0.0308012 0.00228057 0)
(-0.03127 0.00194763 0)
(-0.0316643 0.00160895 0)
(-0.0319829 0.00126552 0)
(-0.0322248 0.000918273 0)
(-0.0323894 0.00056814 0)
(-0.032476 0.000216027 0)
(-0.0324844 -0.000137163 0)
(-0.0324144 -0.000490525 0)
(-0.0322662 -0.000843136 0)
(-0.03204 -0.00119405 0)
(-0.0317364 -0.00154228 0)
(-0.031356 -0.00188681 0)
(-0.0308999 -0.00222655 0)
(-0.0303693 -0.00256035 0)
(-0.0297656 -0.002887 0)
(-0.0290907 -0.0032052 0)
(-0.0283465 -0.00351354 0)
(-0.0275355 -0.00381051 0)
(-0.0266604 -0.0040945 0)
(-0.0257242 -0.00436376 0)
(-0.0247304 -0.00461644 0)
(-0.0236828 -0.00485052 0)
(-0.0225858 -0.00506386 0)
(-0.0214442 -0.00525419 0)
(-0.0202631 -0.0054191 0)
(-0.0190483 -0.00555606 0)
(-0.0178061 -0.00566244 0)
(-0.0165432 -0.00573553 0)
(-0.0152669 -0.00577255 0)
(-0.0139851 -0.00577075 0)
(-0.012706 -0.00572741 0)
(-0.0114385 -0.00563996 0)
(-0.0101918 -0.00550605 0)
(-0.00897537 -0.00532368 0)
(-0.00779921 -0.00509135 0)
(-0.00667327 -0.00480826 0)
(-0.00560759 -0.00447452 0)
(-0.00461202 -0.00409146 0)
(-0.003696 -0.00366197 0)
(-0.00286833 -0.00319096 0)
(-0.00213681 -0.0026859 0)
(-0.00150788 -0.00215742 0)
(-0.000986079 -0.00162 0)
(-0.000573424 -0.00109269 0)
(-0.000267938 -0.000599693 0)
(-6.32795e-05 -0.000170613 0)
(-7.46404e-05 0.00024772 0)
(-0.000314318 0.000820926 0)
(-0.000667659 0.00144865 0)
(-0.00113975 0.0021019 0)
(-0.00173097 0.00275655 0)
(-0.00243766 0.00339335 0)
(-0.00325374 0.00399747 0)
(-0.00417141 0.0045579 0)
(-0.00518174 0.00506693 0)
(-0.00627498 0.0055195 0)
(-0.00744087 0.00591272 0)
(-0.00866889 0.00624541 0)
(-0.00994845 0.00651773 0)
(-0.011269 0.00673084 0)
(-0.0126203 0.00688669 0)
(-0.0139923 0.00698775 0)
(-0.0153755 0.00703689 0)
(-0.0167608 0.0070372 0)
(-0.0181394 0.00699193 0)
(-0.0195034 0.00690432 0)
(-0.0208453 0.00677761 0)
(-0.0221578 0.00661497 0)
(-0.0234347 0.00641944 0)
(-0.0246699 0.00619389 0)
(-0.025858 0.00594108 0)
(-0.0269939 0.00566356 0)
(-0.0280733 0.00536374 0)
(-0.0290918 0.00504383 0)
(-0.030046 0.00470591 0)
(-0.0309323 0.0043519 0)
(-0.031748 0.00398356 0)
(-0.0324902 0.00360255 0)
(-0.0331568 0.00321039 0)
(-0.0337456 0.00280853 0)
(-0.0342549 0.00239831 0)
(-0.0346832 0.00198101 0)
(-0.0350292 0.00155784 0)
(-0.0352919 0.00112997 0)
(-0.0354705 0.000698551 0)
(-0.0355645 0.000264701 0)
(-0.0355734 -0.000170464 0)
(-0.0354972 -0.000605821 0)
(-0.0353359 -0.00104023 0)
(-0.0350899 -0.00147252 0)
(-0.0347597 -0.00190148 0)
(-0.0343462 -0.00232584 0)
(-0.0338504 -0.00274427 0)
(-0.0332736 -0.00315535 0)
(-0.0326174 -0.00355759 0)
(-0.0318838 -0.00394937 0)
(-0.0310749 -0.00432897 0)
(-0.0301934 -0.00469455 0)
(-0.0292422 -0.00504413 0)
(-0.0282245 -0.00537556 0)
(-0.0271442 -0.00568658 0)
(-0.0260054 -0.00597473 0)
(-0.0248128 -0.00623741 0)
(-0.0235714 -0.00647186 0)
(-0.0222869 -0.00667517 0)
(-0.0209655 -0.00684428 0)
(-0.0196139 -0.00697603 0)
(-0.0182393 -0.00706715 0)
(-0.0168495 -0.00711435 0)
(-0.0154529 -0.00711432 0)
(-0.0140583 -0.00706388 0)
(-0.0126752 -0.00695996 0)
(-0.0113133 -0.00679983 0)
(-0.00998285 -0.00658116 0)
(-0.00869434 -0.0063022 0)
(-0.00745843 -0.00596203 0)
(-0.00628585 -0.00556077 0)
(-0.00518719 -0.00509991 0)
(-0.00417273 -0.00458268 0)
(-0.00325219 -0.00401447 0)
(-0.00243442 -0.00340337 0)
(-0.00172707 -0.00276071 0)
(-0.00113604 -0.00210166 0)
(-0.000664762 -0.00144576 0)
(-0.000312576 -0.000817386 0)
(-7.41317e-05 -0.000245736 0)
(-8.48116e-05 0.000334444 0)
(-0.000356183 0.0010696 0)
(-0.000753613 0.00184854 0)
(-0.00128135 0.00264308 0)
(-0.00193853 0.0034294 0)
(-0.00272009 0.00418818 0)
(-0.00361857 0.00490432 0)
(-0.00462496 0.0055665 0)
(-0.00572917 0.00616665 0)
(-0.0069205 0.00669945 0)
(-0.00818784 0.00716187 0)
(-0.0095199 0.0075527 0)
(-0.0109054 0.0078722 0)
(-0.0123332 0.00812173 0)
(-0.0137924 0.00830355 0)
(-0.0152725 0.00842053 0)
(-0.0167634 0.00847596 0)
(-0.0182554 0.00847345 0)
(-0.0197395 0.00841674 0)
(-0.021207 0.00830965 0)
(-0.0226501 0.00815597 0)
(-0.0240613 0.00795939 0)
(-0.0254337 0.00772349 0)
(-0.026761 0.0074517 0)
(-0.0280374 0.00714725 0)
(-0.0292577 0.00681317 0)
(-0.0304169 0.00645233 0)
(-0.0315107 0.00606737 0)
(-0.0325352 0.00566076 0)
(-0.0334869 0.0052348 0)
(-0.0343626 0.00479161 0)
(-0.0351594 0.00433317 0)
(-0.0358749 0.00386132 0)
(-0.0365069 0.00337779 0)
(-0.0370536 0.00288419 0)
(-0.0375132 0.00238207 0)
(-0.0378845 0.00187289 0)
(-0.0381664 0.00135806 0)
(-0.038358 0.000838967 0)
(-0.0384587 0.000316959 0)
(-0.0384682 -0.000206616 0)
(-0.0383863 -0.000730406 0)
(-0.038213 -0.00125304 0)
(-0.0379489 -0.00177309 0)
(-0.0375943 -0.00228912 0)
(-0.0371503 -0.00279959 0)
(-0.036618 -0.00330289 0)
(-0.0359987 -0.00379733 0)
(-0.0352942 -0.0042811 0)
(-0.0345065 -0.00475227 0)
(-0.033638 -0.00520878 0)
(-0.0326914 -0.00564841 0)
(-0.0316699 -0.00606879 0)
(-0.030577 -0.00646738 0)
(-0.0294167 -0.00684145 0)
(-0.0281934 -0.00718808 0)
(-0.0269121 -0.0075042 0)
(-0.0255782 -0.00778651 0)
(-0.0241977 -0.00803158 0)
(-0.0227771 -0.00823579 0)
(-0.0213235 -0.00839542 0)
(-0.0198446 -0.00850664 0)
(-0.0183487 -0.00856558 0)
(-0.0168445 -0.00856842 0)
(-0.0153415 -0.0085114 0)
(-0.0138496 -0.00839102 0)
(-0.0123791 -0.0082041 0)
(-0.0109408 -0.00794793 0)
(-0.00954573 -0.00762053 0)
(-0.00820529 -0.00722079 0)
(-0.00693088 -0.0067488 0)
(-0.00573384 -0.00620611 0)
(-0.00462532 -0.00559618 0)
(-0.00361599 -0.00492472 0)
(-0.00271583 -0.00420023 0)
(-0.00193372 -0.00343444 0)
(-0.00127691 -0.00264284 0)
(-0.000750193 -0.00184511 0)
(-0.000354145 -0.00106538 0)
(-8.42208e-05 -0.00033207 0)
(-9.42298e-05 0.00043157 0)
(-0.000395028 0.00134665 0)
(-0.000833721 0.00229207 0)
(-0.0014139 0.0032407 0)
(-0.00213359 0.00416928 0)
(-0.0029864 0.00505874 0)
(-0.00396354 0.00589401 0)
(-0.00505472 0.00666367 0)
(-0.00624876 0.00735954 0)
(-0.00753393 0.00797623 0)
(-0.00889825 0.00851066 0)
(-0.0103297 0.00896172 0)
(-0.0118162 0.00932982 0)
(-0.013346 0.0096166 0)
(-0.0149077 0.00982465 0)
(-0.0164902 0.00995727 0)
(-0.0180829 0.0100182 0)
(-0.0196757 0.0100117 0)
(-0.021259 0.0099419 0)
(-0.022824 0.00981325 0)
(-0.0243622 0.00963012 0)
(-0.0258658 0.00939677 0)
(-0.0273276 0.00911734 0)
(-0.028741 0.00879579 0)
(-0.0301 0.00843589 0)
(-0.0313988 0.00804118 0)
(-0.0326325 0.00761498 0)
(-0.0337964 0.0071604 0)
(-0.0348864 0.00668033 0)
(-0.0358988 0.00617745 0)
(-0.0368303 0.00565427 0)
(-0.0376778 0.0051131 0)
(-0.0384388 0.00455612 0)
(-0.0391109 0.00398536 0)
(-0.0396922 0.00340274 0)
(-0.040181 0.00281005 0)
(-0.0405758 0.00220905 0)
(-0.0408756 0.00160139 0)
(-0.0410793 0.000988708 0)
(-0.0411864 0.000372598 0)
(-0.0411964 -0.000245349 0)
(-0.0411092 -0.000863535 0)
(-0.040925 -0.00148033 0)
(-0.0406441 -0.00209408 0)
(-0.0402671 -0.00270306 0)
(-0.039795 -0.00330546 0)
(-0.0392288 -0.00389938 0)
(-0.0385702 -0.00448284 0)
(-0.0378209 -0.0050537 0)
(-0.036983 -0.00560969 0)
(-0.0360592 -0.00614838 0)
(-0.0350522 -0.00666718 0)
(-0.0339653 -0.00716329 0)
(-0.0328024 -0.00763373 0)
(-0.0315675 -0.00807532 0)
(-0.0302654 -0.00848466 0)
(-0.0289013 -0.00885813 0)
(-0.0274808 -0.00919191 0)
(-0.0260103 -0.00948201 0)
(-0.0244966 -0.00972424 0)
(-0.0229472 -0.00991428 0)
(-0.0213701 -0.0100477 0)
(-0.0197741 -0.0101201 0)
(-0.0181683 -0.010127 0)
(-0.0165627 -0.0100641 0)
(-0.0149675 -0.00992751 0)
(-0.0133937 -0.00971345 0)
(-0.0118527 -0.00941889 0)
(-0.010356 -0.00904152 0)
(-0.00891568 -0.00858 0)
(-0.00754384 -0.00803432 0)
(-0.00625262 -0.00740602 0)
(-0.00505406 -0.00669863 0)
(-0.00395984 -0.00591805 0)
(-0.00298104 -0.00507293 0)
(-0.00212779 -0.00417519 0)
(-0.00140865 -0.00324036 0)
(-0.000829722 -0.00228796 0)
(-0.000392664 -0.00134161 0)
(-9.35492e-05 -0.000428739 0)
(-0.000102944 0.000538287 0)
(-0.000431046 0.00165011 0)
(-0.000908323 0.00277655 0)
(-0.00153789 0.00389161 0)
(-0.0023168 0.00497281 0)
(-0.00323742 0.00600152 0)
(-0.00428968 0.00696292 0)
(-0.00546207 0.00784573 0)
(-0.00674227 0.00864183 0)
(-0.00811754 0.00934591 0)
(-0.00957499 0.00995502 0)
(-0.0111017 0.0104682 0)
(-0.0126851 0.0108861 0)
(-0.0143127 0.0112108 0)
(-0.0159724 0.0114452 0)
(-0.0176527 0.011593 0)
(-0.0193425 0.0116586 0)
(-0.0210312 0.0116467 0)
(-0.0227089 0.0115621 0)
(-0.0243662 0.0114098 0)
(-0.0259945 0.0111947 0)
(-0.0275855 0.0109218 0)
(-0.0291319 0.0105957 0)
(-0.0306265 0.010221 0)
(-0.0320631 0.00980201 0)
(-0.0334359 0.00934275 0)
(-0.0347396 0.00884707 0)
(-0.0359694 0.00831853 0)
(-0.0371209 0.00776047 0)
(-0.0381902 0.00717599 0)
(-0.039174 0.00656798 0)
(-0.040069 0.00593912 0)
(-0.0408726 0.00529192 0)
(-0.0415823 0.00462874 0)
(-0.0421961 0.00395181 0)
(-0.0427121 0.00326321 0)
(-0.043129 0.00256496 0)
(-0.0434455 0.00185901 0)
(-0.0436606 0.00114723 0)
(-0.0437738 0.000431479 0)
(-0.0437845 -0.000286389 0)
(-0.0436926 -0.00100452 0)
(-0.0434983 -0.00172104 0)
(-0.0432019 -0.002434 0)
(-0.042804 -0.00314142 0)
(-0.0423057 -0.00384119 0)
(-0.0417081 -0.00453113 0)
(-0.0410128 -0.00520892 0)
(-0.0402217 -0.00587208 0)
(-0.039337 -0.006518 0)
(-0.0383614 -0.00714386 0)
(-0.0372978 -0.00774666 0)
(-0.0361497 -0.00832318 0)
(-0.034921 -0.00886997 0)
(-0.0336161 -0.00938337 0)
(-0.0322398 -0.00985946 0)
(-0.0307975 -0.0102941 0)
(-0.0292953 -0.0106829 0)
(-0.0277397 -0.0110212 0)
(-0.0261379 -0.0113044 0)
(-0.0244976 -0.0115274 0)
(-0.0228273 -0.0116852 0)
(-0.0211359 -0.0117727 0)
(-0.0194333 -0.011785 0)
(-0.0177296 -0.0117172 0)
(-0.0160357 -0.0115647 0)
(-0.014363 -0.0113234 0)
(-0.0127233 -0.0109897 0)
(-0.0111291 -0.010561 0)
(-0.00959273 -0.0100357 0)
(-0.00812723 -0.00941351 0)
(-0.0067455 -0.00869593 0)
(-0.0054605 -0.00788642 0)
(-0.00428492 -0.00699088 0)
(-0.00323097 -0.00601798 0)
(-0.00230999 -0.00497959 0)
(-0.0015318 -0.0038911 0)
(-0.000903722 -0.00277162 0)
(-0.000428341 -0.00164411 0)
(-0.00010217 -0.000534924 0)
(-0.000111033 0.000653867 0)
(-0.000464541 0.00197821 0)
(-0.000977984 0.00329949 0)
(-0.00165416 0.0045929 0)
(-0.00248929 0.00583682 0)
(-0.00347461 0.00701324 0)
(-0.00459883 0.00810773 0)
(-0.00584924 0.00910933 0)
(-0.0072124 0.0100101 0)
(-0.00867455 0.0108051 0)
(-0.0102219 0.0114915 0)
(-0.0118407 0.0120686 0)
(-0.0135176 0.0125375 0)
(-0.0152394 0.0129005 0)
(-0.0169936 0.0131612 0)
(-0.0187681 0.0133237 0)
(-0.0205512 0.013393 0)
(-0.022332 0.0133743 0)
(-0.0241002 0.013273 0)
(-0.025846 0.0130949 0)
(-0.0275604 0.0128454 0)
(-0.0292349 0.0125301 0)
(-0.0308617 0.0121543 0)
(-0.0324337 0.0117232 0)
(-0.0339443 0.0112415 0)
(-0.0353873 0.0107139 0)
(-0.0367574 0.0101448 0)
(-0.0380496 0.00953812 0)
(-0.0392593 0.00889776 0)
(-0.0403826 0.00822722 0)
(-0.0414158 0.00752979 0)
(-0.0423557 0.00680853 0)
(-0.0431996 0.00606632 0)
(-0.0439448 0.00530584 0)
(-0.0445893 0.00452963 0)
(-0.0451312 0.00374009 0)
(-0.0455689 0.00293952 0)
(-0.0459013 0.00213014 0)
(-0.0461274 0.0013141 0)
(-0.0462463 0.000493529 0)
(-0.0462578 -0.000329462 0)
(-0.0461617 -0.00115275 0)
(-0.045958 -0.00197419 0)
(-0.0456472 -0.00279156 0)
(-0.0452299 -0.00360258 0)
(-0.044707 -0.00440486 0)
(-0.04408 -0.00519589 0)
(-0.0433503 -0.00597303 0)
(-0.0425199 -0.00673345 0)
(-0.0415911 -0.00747415 0)
(-0.0405666 -0.00819194 0)
(-0.0394496 -0.00888337 0)
(-0.0382436 -0.00954478 0)
(-0.0369527 -0.0101723 0)
(-0.0355813 -0.0107616 0)
(-0.0341345 -0.0113084 0)
(-0.032618 -0.0118079 0)
(-0.0310379 -0.0122552 0)
(-0.029401 -0.012645 0)
(-0.0277149 -0.0129719 0)
(-0.0259876 -0.0132305 0)
(-0.0242278 -0.0134149 0)
(-0.0224449 -0.0135195 0)
(-0.020649 -0.0135386 0)
(-0.0188509 -0.0134668 0)
(-0.0170617 -0.0132989 0)
(-0.0152934 -0.0130303 0)
(-0.0135585 -0.0126569 0)
(-0.0118698 -0.0121756 0)
(-0.0102406 -0.0115845 0)
(-0.00868452 -0.0108831 0)
(-0.00721538 -0.0100726 0)
(-0.00584702 -0.00915627 0)
(-0.00459318 -0.00813996 0)
(-0.00346718 -0.00703216 0)
(-0.00248154 -0.00584454 0)
(-0.00164726 -0.00459214 0)
(-0.00097279 -0.00329361 0)
(-0.000461496 -0.0019711 0)
(-0.000110164 -0.000649897 0)
(-0.000118588 0.000777684 0)
(-0.000495878 0.00232939 0)
(-0.0010434 0.00385871 0)
(-0.00176378 0.00534199 0)
(-0.00265253 0.00675853 0)
(-0.00369984 0.00809099 0)
(-0.00489329 0.00932552 0)
(-0.00621902 0.0104515 0)
(-0.00766248 0.0114616 0)
(-0.00920888 0.0123509 0)
(-0.0108435 0.0131171 0)
(-0.0125517 0.0137599 0)
(-0.0143195 0.0142809 0)
(-0.016133 0.0146828 0)
(-0.017979 0.0149696 0)
(-0.0198448 0.0151462 0)
(-0.0217185 0.0152181 0)
(-0.0235886 0.0151911 0)
(-0.0254443 0.0150714 0)
(-0.0272756 0.0148652 0)
(-0.0290731 0.0145789 0)
(-0.0308281 0.0142184 0)
(-0.0325324 0.0137898 0)
(-0.0341787 0.0132989 0)
(-0.0357602 0.0127511 0)
(-0.0372707 0.0121515 0)
(-0.0387044 0.011505 0)
(-0.0400563 0.0108163 0)
(-0.0413217 0.0100894 0)
(-0.0424965 0.00932857 0)
(-0.043577 0.00853734 0)
(-0.0445598 0.00771921 0)
(-0.045442 0.00687741 0)
(-0.0462212 0.00601499 0)
(-0.046895 0.0051348 0)