/*--------------------------------*- C++ -*----------------------------------*\
| =========                 |                                                 |
| \\      /  F ield         | OpenFOAM: The Open Source CFD Toolbox           |
|  \\    /   O peration     | Version:  4.1                                   |
|   \\  /    A nd           | Web:      www.OpenFOAM.org                      |
|    \\/     M anipulation  |                                                 |
\*---------------------------------------------------------------------------*/
FoamFile
{
    version     2.0;
    format      ascii;
    class       volScalarField;
    location    "0.0033";
    object      p;
}
// * * * * * * * * * * * * * * * * * * * * * * * * * * * * * * * * * * * * * //

dimensions      [1 -1 -2 0 0 0 0];

internalField   nonuniform List<scalar> 
441
(
100000
99999.9
99999.7
100000
100000
99999.6
100000
100000
100000
100001
100001
100001
100001
100001
100001
100001
100001
100001
100001
100001
100001
100000
100000
100000
100000
100000
100000
100000
100000
100000
100000
100000
100000
100000
100000
100000
100001
100000
100001
100000
100001
100000
100000
99999.9
100000
99999.9
100000
99999.9
100000
100000
100000
100001
100001
100001
100001
100001
100001
100001
100001
100001
100001
100001
100001
100000
100000
100000
100000
100000
100000
100000
100000
100000
100000
100000
100000
100001
100001
100001
100001
100001
100001
100001
100001
100001
100000
99999.5
99999.8
99999.7
99999.8
99999.8
99999.9
100000
100000
100000
100000
100001
100001
100001
100001
100001
100001
100001
100001
100001
100001
99998.8
99999.5
99999.3
99999.5
99999.6
99999.7
99999.8
100000
100000
100000
100000
100001
100001
100001
100001
100001
100001
100001
100001
100001
100001
99998.4
99998.8
99998.8
99999
99999.1
99999.3
99999.5
99999.7
99999.9
100000
100000
100001
100001
100001
100001
100001
100001
100002
100001
100002
100001
99998.4
99998.5
99998.5
99998.7
99998.8
99999.1
99999.3
99999.5
99999.8
100000
100000
100001
100001
100001
100001
100002
100002
100002
100002
100002
100001
99997.6
99997.7
99997.8
99998
99998.2
99998.5
99998.8
99999.2
99999.5
100000
100000
100001
100001
100002
100002
100002
100002
100003
100002
100003
100002
99997.2
99997.2
99997.3
99997.5
99997.7
99998.1
99998.4
99998.9
99999.3
99999.8
100000
100001
100001
100002
100002
100003
100003
100003
100003
100004
100002
99995.9
99996
99996.1
99996.4
99996.7
99997.2
99997.7
99998.3
99998.9
99999.6
100000
100001
100002
100002
100003
100003
100004
100004
100004
100005
100005
99995.3
99995.3
99995.4
99995.8
99996
99996.6
99997.1
99997.9
99998.6
99999.4
100000
100001
100002
100003
100004
100004
100005
100005
100005
100005
100005
99993.4
99993.5
99993.6
99994.2
99994.6
99995.4
99996.1
99997.1
99998
99999.1
100000
100001
100003
100003
100005
100005
100006
100007
100007
100007
100005
99992.6
99992.7
99992.8
99993.4
99993.7
99994.7
99995.4
99996.5
99997.5
99998.8
100000
100001
100003
100004
100005
100006
100007
100007
100008
100008
100007
99989.5
99990
99989.9
99991.2
99991.6
99993
99993.9
99995.5
99996.8
99998.3
99999.9
100001
100003
100005
100007
100007
100010
100010
100011
100011
100009
99988.8
99989.2
99989
99990.3
99990.6
99992.2
99993.1
99994.8
99996.2
99997.9
99999.6
100001
100003
100005
100007
100008
100010
100011
100012
100012
100008
99983.2
99984.9
99984.4
99987.1
99987.6
99990.1
99991.3
99993.6
99995.3
99997.4
99999.5
100001
100004
100005
100009
100010
100015
100014
100021
100016
100032
99982.9
99984.5
99983.6
99986.3
99986.6
99989.3
99990.5
99993
99994.8
99996.9
99999.1
100001
100004
100005
100008
100009
100014
100015
100021
100020
100029
99970.1
99977.4
99976
99982.1
99982.8
99987.1
99988.8
99991.9
99994
99996.5
99998.9
100001
100004
100006
100010
100011
100018
100018
100029
100029
100043
99970
99978
99975.9
99981.4
99982.2
99986.5
99988.3
99991.5
99993.7
99996.1
99998.6
100000
100003
100005
100009
100010
100016
100016
100027
100029
100046
99926.9
99969.2
99968
99979.7
99980.5
99986
99987.9
99991.4
99993.6
99996.1
99998.6
100001
100004
100005
100010
100011
100019
100021
100040
100046
100100
)
;

boundaryField
{
    movingWall
    {
        type            zeroGradient;
    }
    fixedWalls
    {
        type            zeroGradient;
    }
    frontAndBack
    {
        type            empty;
    }
}


// ************************************************************************* //
