/*--------------------------------*- C++ -*----------------------------------*\
| =========                 |                                                 |
| \\      /  F ield         | OpenFOAM: The Open Source CFD Toolbox           |
|  \\    /   O peration     | Version:  4.1                                   |
|   \\  /    A nd           | Web:      www.OpenFOAM.org                      |
|    \\/     M anipulation  |                                                 |
\*---------------------------------------------------------------------------*/
FoamFile
{
    version     2.0;
    format      ascii;
    class       volScalarField;
    location    "0.0172";
    object      p;
}
// * * * * * * * * * * * * * * * * * * * * * * * * * * * * * * * * * * * * * //

dimensions      [1 -1 -2 0 0 0 0];

internalField   nonuniform List<scalar> 
441
(
100000
99999.9
99999.8
99999.7
99999.8
99999.5
99999.8
99999.9
99999.9
100001
100001
100001
100001
100001
100001
100001
100001
100001
100001
100001
100000
100000
100000
100000
100000
100000
100000
100000
100000
100000
100000
100000
100000
100000
100001
100000
100001
100000
100001
100000
100001
100000
100000
99999.9
100000
99999.9
99999.9
99999.9
100000
100000
100000
100000
100000
100001
100001
100001
100001
100001
100001
100001
100000
100001
100000
100000
100000
100000
100000
100000
100000
100000
100000
100000
100000
100000
100000
100000
100001
100000
100001
100000
100001
100000
100000
100000
100001
99999.8
100000
99999.8
99999.9
99999.9
100000
100000
100000
100000
100000
100000
100000
100001
100001
100001
100000
100001
100000
100001
100000
99999.6
99999.9
99999.8
99999.9
99999.9
99999.9
100000
100000
100000
100000
100000
100000
100000
100001
100000
100001
100000
100001
100000
100001
100000
99999.4
99999.5
99999.5
99999.6
99999.6
99999.7
99999.8
99999.9
100000
100000
100000
100000
100000
100001
100001
100001
100001
100001
100000
100001
99999.7
99999.6
99999.5
99999.5
99999.5
99999.5
99999.6
99999.7
99999.8
99999.9
100000
100000
100000
100000
100001
100001
100001
100001
100001
100000
100001
99999.8
99999.2
99999.1
99999
99999.1
99999.1
99999.3
99999.3
99999.5
99999.6
99999.9
100000
100000
100000
100001
100001
100001
100001
100001
100001
100001
99999.9
99999.1
99998.9
99998.9
99998.9
99998.9
99999.1
99999.1
99999.3
99999.4
99999.6
99999.8
100000
100000
100001
100001
100001
100001
100001
100000
100001
99999.3
99998.4
99998.2
99998.2
99998.3
99998.3
99998.5
99998.6
99998.8
99999
99999.3
99999.6
99999.9
100000
100001
100001
100001
100001
100002
100001
100002
100001
99998.3
99998.1
99998
99998.1
99998
99998.2
99998.2
99998.4
99998.6
99998.8
99999.1
99999.5
99999.8
100000
100001
100001
100001
100002
100001
100002
100001
99997.2
99997
99996.9
99997.1
99997
99997.3
99997.4
99997.7
99997.9
99998.2
99998.6
99999
99999.6
100000
100001
100002
100002
100003
100002
100003
99998.8
99997.1
99996.9
99996.6
99996.9
99996.6
99996.9
99996.8
99997.1
99997.2
99997.5
99997.8
99998.2
99998.8
99999.3
100000
100001
100001
100003
100001
100003
99998.7
99995.1
99995.2
99994.8
99995.4
99995.2
99995.8
99995.7
99996.1
99996.3
99996.6
99997.1
99997.4
99998.3
99998.7
100000
100001
100003
100004
100004
100005
99997.1
99995.3
99995.4
99994.8
99995.4
99994.8
99995.4
99995.1
99995.4
99995.4
99995.7
99996
99996.2
99997
99997.3
99998.7
99999.5
100001
100003
100002
100005
99989.5
99991.2
99992.5
99991.6
99993.5
99992.8
99994
99993.8
99994.4
99994.5
99994.8
99995.3
99995.4
99996.5
99996.5
99998.8
99999
100004
100004
100013
100007
100028
99992
99993.6
99992.1
99993.9
99992.9
99993.9
99993.4
99993.9
99993.8
99994
99994.5
99994.4
99995.4
99995.3
99997.5
99997.7
100002
100004
100013
100015
100030
99981.1
99988.8
99986.9
99991.8
99990.8
99993
99992.6
99993.5
99993.6
99993.9
99994.4
99994.4
99995.7
99995.5
99998.5
99998.5
100005
100006
100021
100024
100042
99982.5
99991.7
99989.2
99993.4
99992
99993.8
99993.1
99993.8
99993.7
99993.9
99994.4
99994.3
99995.6
99995.4
99998.5
99998.7
100006
100008
100023
100028
100051
99941.2
99985.3
99984.1
99994.3
99992.5
99995.2
99994.2
99995
99994.7
99994.8
99995.2
99995
99996.4
99996.3
99999.8
100000
100009
100012
100035
100045
100104
)
;

boundaryField
{
    movingWall
    {
        type            zeroGradient;
    }
    fixedWalls
    {
        type            zeroGradient;
    }
    frontAndBack
    {
        type            empty;
    }
}


// ************************************************************************* //
