/*--------------------------------*- C++ -*----------------------------------*\
| =========                 |                                                 |
| \\      /  F ield         | OpenFOAM: The Open Source CFD Toolbox           |
|  \\    /   O peration     | Version:  4.1                                   |
|   \\  /    A nd           | Web:      www.OpenFOAM.org                      |
|    \\/     M anipulation  |                                                 |
\*---------------------------------------------------------------------------*/
FoamFile
{
    version     2.0;
    format      ascii;
    class       volVectorField;
    location    "0.0172";
    object      U;
}
// * * * * * * * * * * * * * * * * * * * * * * * * * * * * * * * * * * * * * //

dimensions      [0 1 -1 0 0 0 0];

internalField   nonuniform List<vector> 
441
(
(0.00339769 -0.0049885 0)
(0.00778065 -0.00313847 0)
(-0.000784914 -2.50782e-165 0)
(0.00149357 -2.20361e-266 0)
(-0.0111595 -0.00597484 0)
(-0.00149357 -2.50654e-232 0)
(-1.12389e-202 -3.43602e-203 0)
(-8.58784e-204 -4.1701e-228 0)
(-1.29756e-212 -1.73343e-213 0)
(-0.00461054 7.0583e-266 0)
(-0.0539684 0.0184423 0)
(-0.0695604 0.010188 0)
(-0.0809092 0.005142 0)
(-0.076087 0.00135563 0)
(-0.0690891 -0.000231898 0)
(-0.0546336 -0.00152669 0)
(-0.0405684 -0.00160311 0)
(-0.0242746 -0.00192204 0)
(-0.0107037 -0.000760932 0)
(-0.00204765 -7.96828e-05 0)
(0.00297473 0.00193817 0)
(0.00275665 -0.00594987 0)
(-0.00552542 0.00738648 0)
(-0.0320736 0.00770657 0)
(-0.059888 0.0121028 0)
(-0.0973523 0.00822752 0)
(-0.127508 -0.00655173 0)
(-0.153178 -0.000938923 0)
(-0.175809 0.000900461 0)
(-0.194558 0.00914632 0)
(-0.214669 0.0477197 0)
(-0.228976 0.0449266 0)
(-0.225558 0.0170635 0)
(-0.220346 0.000992898 0)
(-0.199482 -0.0136053 0)
(-0.175181 -0.0212595 0)
(-0.140199 -0.0278315 0)
(-0.105266 -0.0286075 0)
(-0.0672278 -0.0289421 0)
(-0.0348696 -0.0211768 0)
(-0.0115729 -0.014347 0)
(0.00248543 -0.000830101 0)
(0.00589181 -0.00294778 0)
(-0.00823413 0.0312606 0)
(-0.0536429 0.05278 0)
(-0.106882 0.0634462 0)
(-0.164753 0.0606644 0)
(-0.221295 0.0525316 0)
(-0.276602 0.0464428 0)
(-0.314999 0.03997 0)
(-0.35252 0.0372171 0)
(-0.365829 0.0380862 0)
(-0.356395 0.0300536 0)
(-0.34388 0.00258803 0)
(-0.325168 -0.0204446 0)
(-0.292653 -0.0435793 0)
(-0.254567 -0.058797 0)
(-0.203977 -0.071551 0)
(-0.153289 -0.0736358 0)
(-0.0983774 -0.0725991 0)
(-0.0521661 -0.0554441 0)
(-0.0172775 -0.037686 0)
(0.00346674 -0.00653687 0)
(0.00638866 -0.00371682 0)
(-0.0114515 0.0684995 0)
(-0.0777215 0.106565 0)
(-0.147729 0.125076 0)
(-0.223436 0.122897 0)
(-0.293519 0.107627 0)
(-0.356654 0.0937485 0)
(-0.405775 0.0774037 0)
(-0.442729 0.0614186 0)
(-0.460051 0.0494192 0)
(-0.457009 0.022647 0)
(-0.439283 -0.0150236 0)
(-0.412486 -0.0504177 0)
(-0.369037 -0.0850086 0)
(-0.319009 -0.10982 0)
(-0.254306 -0.130164 0)
(-0.190061 -0.133807 0)
(-0.120248 -0.131354 0)
(-0.06276 -0.101671 0)
(-0.0183388 -0.0711989 0)
(0.00565787 -0.0143269 0)
(6.15999e-165 0.00159717 0)
(-0.0154195 0.114983 0)
(-0.103032 0.188299 0)
(-0.183242 0.208048 0)
(-0.272853 0.205635 0)
(-0.352746 0.184401 0)
(-0.426575 0.157849 0)
(-0.482456 0.125411 0)
(-0.524929 0.0910727 0)
(-0.543791 0.0530366 0)
(-0.541835 0.00961694 0)
(-0.522546 -0.0416046 0)
(-0.490133 -0.0901044 0)
(-0.438513 -0.13712 0)
(-0.378377 -0.172641 0)
(-0.299984 -0.200907 0)
(-0.223159 -0.206468 0)
(-0.136801 -0.200546 0)
(-0.0692584 -0.155915 0)
(-0.013282 -0.106659 0)
(0.0120247 -0.0182421 0)
(-5.27147e-266 0.00493311 0)
(-0.0700253 0.175798 0)
(-0.13825 0.272746 0)
(-0.22899 0.296586 0)
(-0.318811 0.292388 0)
(-0.405839 0.262416 0)
(-0.483142 0.223952 0)
(-0.545639 0.176049 0)
(-0.59172 0.123305 0)
(-0.616335 0.0657113 0)
(-0.620492 0.00148802 0)
(-0.602581 -0.0674819 0)
(-0.568443 -0.134374 0)
(-0.510351 -0.197847 0)
(-0.441266 -0.248025 0)
(-0.349056 -0.287025 0)
(-0.258519 -0.29619 0)
(-0.154005 -0.287586 0)
(-0.0744551 -0.223755 0)
(-0.0032422 -0.155226 0)
(0.0162624 -0.0148744 0)
(-0.0197325 0.0752069 0)
(-0.0943512 0.249785 0)
(-0.170976 0.347944 0)
(-0.26594 0.387105 0)
(-0.363777 0.382079 0)
(-0.457568 0.34773 0)
(-0.542811 0.297218 0)
(-0.612547 0.233454 0)
(-0.665914 0.16168 0)
(-0.697092 0.0817458 0)
(-0.707216 -0.0037877 0)
(-0.692618 -0.0937382 0)
(-0.658515 -0.181601 0)
(-0.595644 -0.264666 0)
(-0.518731 -0.332706 0)
(-0.411478 -0.384499 0)
(-0.307172 -0.399607 0)
(-0.17887 -0.385967 0)
(-0.0908108 -0.304103 0)
(0.00914932 -0.198708 0)
(5.28927e-266 -0.0040656 0)
(-0.0139595 0.121332 0)
(-0.0855825 0.328084 0)
(-0.182858 0.445117 0)
(-0.290954 0.490312 0)
(-0.400651 0.484563 0)
(-0.504812 0.442036 0)
(-0.598803 0.379444 0)
(-0.678136 0.299317 0)
(-0.740171 0.20825 0)
(-0.780915 0.106696 0)
(-0.799848 -0.00279436 0)
(-0.791735 -0.116948 0)
(-0.760946 -0.231177 0)
(-0.696089 -0.339083 0)
(-0.612661 -0.431733 0)
(-0.491164 -0.50116 0)
(-0.370037 -0.527424 0)
(-0.218956 -0.508322 0)
(-0.11331 -0.407994 0)
(-0.000104924 -0.253972 0)
(1.60409e-24 -2.01061e-24 0)
(-0.0117724 0.171897 0)
(-0.0875134 0.416958 0)
(-0.199377 0.55224 0)
(-0.319907 0.603464 0)
(-0.442988 0.595179 0)
(-0.558405 0.544829 0)
(-0.663306 0.470115 0)
(-0.753466 0.374188 0)
(-0.826192 0.264437 0)
(-0.878331 0.14114 0)
(-0.908021 0.00745617 0)
(-0.90971 -0.132857 0)
(-0.88564 -0.276293 0)
(-0.822566 -0.413483 0)
(-0.735145 -0.535897 0)
(-0.599336 -0.628449 0)
(-0.459227 -0.668747 0)
(-0.276987 -0.645295 0)
(-0.147661 -0.517585 0)
(-0.00277163 -0.316604 0)
(6.44283e-77 -4.01022e-25 0)
(-0.010275 0.221549 0)
(-0.0882953 0.517362 0)
(-0.212961 0.678647 0)
(-0.345752 0.734851 0)
(-0.482029 0.723996 0)
(-0.609419 0.662832 0)
(-0.725325 0.575207 0)
(-0.827338 0.462317 0)
(-0.911678 0.333533 0)
(-0.977445 0.188248 0)
(-1.02078 0.0287303 0)
(-1.03663 -0.140149 0)
(-1.0245 -0.318296 0)
(-0.96899 -0.491374 0)
(-0.882211 -0.654762 0)
(-0.734431 -0.78061 0)
(-0.57276 -0.848686 0)
(-0.352688 -0.826048 0)
(-0.189866 -0.678664 0)
(-0.00561328 -0.411675 0)
(1.74665e-164 -1.61071e-77 0)
(-0.0110505 0.267579 0)
(-0.0966786 0.617992 0)
(-0.236499 0.807886 0)
(-0.383086 0.870691 0)
(-0.532681 0.857704 0)
(-0.671863 0.786683 0)
(-0.79783 0.687466 0)
(-0.911167 0.559676 0)
(-1.00657 0.414481 0)
(-1.08704 0.249896 0)
(-1.14585 0.0671088 0)
(-1.1809 -0.129217 0)
(-1.18678 -0.342738 0)
(-1.14809 -0.556097 0)
(-1.06998 -0.768162 0)
(-0.917522 -0.939394 0)
(-0.735025 -1.04625 0)
(-0.472996 -1.03183 0)
(-0.265088 -0.855981 0)
(-0.0566373 -0.513888 0)
(8.87928e-266 0.00801341 0)
(-0.0129798 0.330542 0)
(-0.106112 0.745074 0)
(-0.260355 0.96695 0)
(-0.419433 1.03214 0)
(-0.5802 1.01443 0)
(-0.729222 0.928477 0)
(-0.862761 0.81564 0)
(-0.985564 0.671165 0)
(-1.09032 0.509897 0)
(-1.18521 0.327293 0)
(-1.26076 0.122499 0)
(-1.31895 -0.099995 0)
(-1.34998 -0.351588 0)
(-1.33834 -0.610048 0)
(-1.28135 -0.885942 0)
(-1.13476 -1.11988 0)
(-0.935279 -1.29335 0)
(-0.61745 -1.30422 0)
(-0.335966 -1.09243 0)
(-0.0465384 -0.688491 0)
(0.0320537 -0.0572745 0)
(-0.0180557 0.382496 0)
(-0.126344 0.862476 0)
(-0.302609 1.11849 0)
(-0.477362 1.18744 0)
(-0.647516 1.16591 0)
(-0.803585 1.06695 0)
(-0.938601 0.943081 0)
(-1.06589 0.785999 0)
(-1.17372 0.613976 0)
(-1.27957 0.420045 0)
(-1.3688 0.201265 0)
(-1.4528 -0.0396005 0)
(-1.51348 -0.32202 0)
(-1.54281 -0.624182 0)
(-1.52202 -0.968812 0)
(-1.40312 -1.28625 0)
(-1.20273 -1.55868 0)
(-0.81919 -1.63515 0)
(-0.45821 -1.42009 0)
(0.0364915 -0.885299 0)
(1.64511e-231 -0.00801341 0)
(-0.0248803 0.477937 0)
(-0.148421 1.03285 0)
(-0.344299 1.32196 0)
(-0.530823 1.37836 0)
(-0.704552 1.34394 0)
(-0.861495 1.22008 0)
(-0.990774 1.07998 0)
(-1.11499 0.906429 0)
(-1.21776 0.72422 0)
(-1.32632 0.522248 0)
(-1.42192 0.295073 0)
(-1.52611 0.0442182 0)
(-1.61616 -0.263295 0)
(-1.69243 -0.602824 0)
(-1.72654 -1.02802 0)
(-1.66587 -1.44335 0)
(-1.50565 -1.88007 0)
(-1.10735 -2.06114 0)
(-0.667778 -1.94571 0)
(-0.00285776 -1.17217 0)
(4.10136e-202 3.53824e-184 0)
(-0.0430148 0.548493 0)
(-0.199264 1.17576 0)
(-0.426007 1.49671 0)
(-0.625744 1.54197 0)
(-0.790422 1.4946 0)
(-0.936056 1.34944 0)
(-1.04005 1.19589 0)
(-1.14482 1.01131 0)
(-1.22283 0.825179 0)
(-1.31796 0.624218 0)
(-1.40136 0.401263 0)
(-1.51369 0.156002 0)
(-1.6188 -0.15459 0)
(-1.74626 -0.511444 0)
(-1.83832 -0.9914 0)
(-1.88321 -1.50561 0)
(-1.79974 -2.10759 0)
(-1.47478 -2.47962 0)
(-0.97559 -2.50689 0)
(-0.00490401 -1.57306 0)
(1.4153e-183 3.1753e-184 0)
(-0.0633388 0.727804 0)
(-0.249269 1.4202 0)
(-0.49202 1.75752 0)
(-0.688365 1.744 0)
(-0.825281 1.661 0)
(-0.940269 1.4701 0)
(-0.999822 1.29251 0)
(-1.0643 1.08942 0)
(-1.09639 0.898388 0)
(-1.15372 0.701076 0)
(-1.1995 0.489335 0)
(-1.2893 0.262164 0)
(-1.38125 -0.0348194 0)
(-1.52797 -0.382489 0)
(-1.66993 -0.897895 0)
(-1.82338 -1.48129 0)
(-1.89868 -2.29941 0)
(-1.76303 -2.89306 0)
(-1.42188 -3.43795 0)
(-0.403214 -2.1841 0)
(3.60696e-254 -3.53824e-184 0)
(-0.128793 0.846293 0)
(-0.385296 1.59097 0)
(-0.631974 1.92966 0)
(-0.800021 1.86488 0)
(-0.847686 1.74485 0)
(-0.885459 1.51837 0)
(-0.845334 1.32004 0)
(-0.82845 1.10605 0)
(-0.773504 0.915043 0)
(-0.760892 0.728344 0)
(-0.734575 0.537122 0)
(-0.774252 0.341305 0)
(-0.81406 0.0846136 0)
(-0.959899 -0.216529 0)
(-1.10636 -0.692151 0)
(-1.4122 -1.26843 0)
(-1.63662 -2.14952 0)
(-2.02212 -2.95743 0)
(-1.87825 -3.80032 0)
(-1.90101 -3.05922 0)
(-2.25221e-264 -0.193975 0)
(-0.181341 1.26235 0)
(-0.462978 1.92735 0)
(-0.633339 2.19387 0)
(-0.697721 1.95983 0)
(-0.596471 1.76005 0)
(-0.501412 1.46754 0)
(-0.323455 1.24209 0)
(-0.189435 1.01779 0)
(-0.0223663 0.832672 0)
(0.0859422 0.663272 0)
(0.205483 0.500832 0)
(0.246517 0.344461 0)
(0.288865 0.144696 0)
(0.206889 -0.0841099 0)
(0.110573 -0.458927 0)
(-0.202739 -0.937063 0)
(-0.537232 -1.71885 0)
(-1.16 -2.61229 0)
(-1.53424 -3.64236 0)
(-1.88012 -3.94562 0)
(-0.775899 -2.1097 0)
(-0.396802 1.45553 0)
(-0.729879 2.01389 0)
(-0.56892 2.15806 0)
(-0.36712 1.81136 0)
(0.0764742 1.54984 0)
(0.404236 1.23826 0)
(0.802364 1.01062 0)
(1.09178 0.803583 0)
(1.39409 0.641617 0)
(1.60242 0.503059 0)
(1.81239 0.37748 0)
(1.92203 0.2646 0)
(2.03868 0.124537 0)
(2.00666 -0.0253946 0)
(1.98421 -0.281635 0)
(1.6827 -0.598368 0)
(1.37981 -1.18931 0)
(0.586459 -1.92352 0)
(-0.0597016 -3.07363 0)
(-0.919705 -3.74784 0)
(-0.684564 -2.87659 0)
(-0.249333 2.45072 0)
(-0.0722376 2.09402 0)
(0.716198 1.88236 0)
(1.3312 1.30837 0)
(2.07895 1.01123 0)
(2.60891 0.737643 0)
(3.1413 0.563251 0)
(3.51873 0.424398 0)
(3.87666 0.324225 0)
(4.12227 0.245749 0)
(4.35705 0.179407 0)
(4.48847 0.122308 0)
(4.62597 0.0543069 0)
(4.62333 -0.0194338 0)
(4.63957 -0.146961 0)
(4.39641 -0.311467 0)
(4.15955 -0.649886 0)
(3.39279 -1.13551 0)
(2.58116 -2.1924 0)
(0.962071 -3.27611 0)
(-0.0428467 -3.78924 0)
(1.67293 1.67551 0)
(2.73172 0.982769 0)
(4.59127 0.754092 0)
(5.42963 0.423762 0)
(6.2734 0.2803 0)
(6.73985 0.167315 0)
(7.16024 0.108 0)
(7.41622 0.0672544 0)
(7.64449 0.0426422 0)
(7.7832 0.0258716 0)
(7.91401 0.0132717 0)
(7.9733 0.00293633 0)
(8.04174 -0.0104112 0)
(8.0121 -0.0248131 0)
(8.00676 -0.0558995 0)
(7.80039 -0.0902278 0)
(7.62764 -0.186545 0)
(6.94598 -0.291603 0)
(6.2504 -0.638325 0)
(4.04755 -1.0185 0)
(2.02369 -1.84688 0)
)
;

boundaryField
{
    movingWall
    {
        type            fixedValue;
        value           uniform (10 0 0);
    }
    fixedWalls
    {
        type            noSlip;
    }
    frontAndBack
    {
        type            empty;
    }
}


// ************************************************************************* //
