/*--------------------------------*- C++ -*----------------------------------*\
| =========                 |                                                 |
| \\      /  F ield         | OpenFOAM: The Open Source CFD Toolbox           |
|  \\    /   O peration     | Version:  4.1                                   |
|   \\  /    A nd           | Web:      www.OpenFOAM.org                      |
|    \\/     M anipulation  |                                                 |
\*---------------------------------------------------------------------------*/
FoamFile
{
    version     2.0;
    format      ascii;
    class       volVectorField;
    location    "9";
    object      U;
}
// * * * * * * * * * * * * * * * * * * * * * * * * * * * * * * * * * * * * * //

dimensions      [0 1 -1 0 0 0 0];

internalField   nonuniform List<vector> 
400
(
(0.000197856 -0.000194999 0)
(-9.41311e-05 8.51956e-05 0)
(-0.00153767 0.000331532 0)
(-0.00372823 0.000512992 0)
(-0.00643171 0.000601441 0)
(-0.00931135 0.000631058 0)
(-0.0121433 0.000606745 0)
(-0.0146853 0.00053269 0)
(-0.0167109 0.000402784 0)
(-0.0179851 0.000215238 0)
(-0.0183021 -2.34082e-05 0)
(-0.017525 -0.000291094 0)
(-0.0156382 -0.000550259 0)
(-0.0127967 -0.000750311 0)
(-0.00933143 -0.000842121 0)
(-0.00574738 -0.000786137 0)
(-0.00259091 -0.000584475 0)
(-0.000415179 -0.000258516 0)
(0.000549571 7.09439e-05 0)
(0.00031407 0.000299186 0)
(-8.94938e-05 8.48202e-05 0)
(-0.00205047 0.00192604 0)
(-0.00644414 0.00363793 0)
(-0.0123708 0.00486275 0)
(-0.0193278 0.00548783 0)
(-0.026586 0.00560363 0)
(-0.0335914 0.00524863 0)
(-0.0397581 0.00444225 0)
(-0.0445436 0.00318319 0)
(-0.0474266 0.00150198 0)
(-0.0479838 -0.00050538 0)
(-0.0459683 -0.00265032 0)
(-0.0414011 -0.0046546 0)
(-0.0346532 -0.00618109 0)
(-0.0264473 -0.00690856 0)
(-0.0178461 -0.00661229 0)
(-0.0100029 -0.00529405 0)
(-0.00408706 -0.00318295 0)
(-0.000625497 -0.000945208 0)
(0.000175815 0.000582031 0)
(-0.000417551 0.0016644 0)
(-0.00433963 0.00644778 0)
(-0.0117241 0.0104825 0)
(-0.0210886 0.0132515 0)
(-0.0317178 0.0146071 0)
(-0.0426042 0.0146886 0)
(-0.0529698 0.0135725 0)
(-0.0619942 0.0113054 0)
(-0.0689272 0.00792315 0)
(-0.0730682 0.00354479 0)
(-0.0738642 -0.00155983 0)
(-0.0710001 -0.00692495 0)
(-0.0645041 -0.0118999 0)
(-0.0548484 -0.015719 0)
(-0.0429599 -0.0176536 0)
(-0.0302362 -0.0171948 0)
(-0.0182406 -0.0143153 0)
(-0.00865604 -0.00953248 0)
(-0.00234324 -0.00420516 0)
(-1.54834e-05 -1.86128e-05 0)
(-0.000739683 0.00441744 0)
(-0.00658934 0.0133552 0)
(-0.0168424 0.0202878 0)
(-0.0293733 0.0248105 0)
(-0.0432649 0.0268816 0)
(-0.0572903 0.026732 0)
(-0.0705309 0.0244937 0)
(-0.0820221 0.0202515 0)
(-0.0908896 0.0140956 0)
(-0.0963175 0.0062564 0)
(-0.0976505 -0.00279427 0)
(-0.0944801 -0.0122791 0)
(-0.0867574 -0.0211273 0)
(-0.0749198 -0.0280725 0)
(-0.0599398 -0.0318734 0)
(-0.0434192 -0.0316106 0)
(-0.0272738 -0.0271135 0)
(-0.0137748 -0.0191356 0)
(-0.00426262 -0.00974944 0)
(-0.000209518 -0.00152605 0)
(-0.00101433 0.00831393 0)
(-0.00860361 0.0226139 0)
(-0.0214755 0.0330003 0)
(-0.0368742 0.0394484 0)
(-0.053692 0.0421894 0)
(-0.0705249 0.041617 0)
(-0.0863753 0.0379515 0)
(-0.100203 0.0313271 0)
(-0.111069 0.0218912 0)
(-0.118078 0.00998054 0)
(-0.120466 -0.00374247 0)
(-0.117675 -0.0181994 0)
(-0.109473 -0.0318887 0)
(-0.0961116 -0.0429849 0)
(-0.0784521 -0.0496022 0)
(-0.0581868 -0.0502075 0)
(-0.037571 -0.0442571 0)
(-0.0196202 -0.0325858 0)
(-0.00638372 -0.0179795 0)
(-0.000388616 -0.00403325 0)
(-0.00124671 0.0131702 0)
(-0.0103244 0.0338863 0)
(-0.0254619 0.0482085 0)
(-0.0433488 0.0567204 0)
(-0.0627152 0.0600945 0)
(-0.0820266 0.0589743 0)
(-0.100259 0.0537112 0)
(-0.116358 0.0444973 0)
(-0.129369 0.0315219 0)
(-0.138348 0.0151886 0)
(-0.142417 -0.00370861 0)
(-0.140821 -0.0238551 0)
(-0.133038 -0.0433596 0)
(-0.118984 -0.0598115 0)
(-0.0992152 -0.0705364 0)
(-0.075342 -0.0731047 0)
(-0.0498837 -0.0662209 0)
(-0.0267434 -0.0504863 0)
(-0.00897656 -0.029339 0)
(-0.000603061 -0.00765637 0)
(-0.0014268 0.0188316 0)
(-0.0116847 0.0468588 0)
(-0.0286415 0.0655397 0)
(-0.0485388 0.0762534 0)
(-0.0699821 0.0802662 0)
(-0.0913567 0.0785601 0)
(-0.111661 0.0716657 0)
(-0.129879 0.0598399 0)
(-0.145097 0.0432877 0)
(-0.15636 0.0224173 0)
(-0.162701 -0.00193956 0)
(-0.16315 -0.0283443 0)
(-0.156835 -0.054615 0)
(-0.143195 -0.0777873 0)
(-0.122265 -0.0942827 0)
(-0.0952985 -0.100446 0)
(-0.0648522 -0.0936809 0)
(-0.0357423 -0.0737957 0)
(-0.0123633 -0.0446447 0)
(-0.000902058 -0.0127212 0)
(-0.00154953 0.0250844 0)
(-0.0126303 0.0610988 0)
(-0.0308711 0.0844657 0)
(-0.0521832 0.0974962 0)
(-0.0750852 0.102182 0)
(-0.0979329 0.0999295 0)
(-0.11979 0.0915011 0)
(-0.139737 0.0772297 0)
(-0.156959 0.0573082 0)
(-0.170557 0.0320777 0)
(-0.179535 0.00229256 0)
(-0.182761 -0.0306388 0)
(-0.179016 -0.0644134 0)
(-0.167187 -0.0956456 0)
(-0.146576 -0.119843 0)
(-0.117707 -0.131832 0)
(-0.0827331 -0.127028 0)
(-0.0471376 -0.103528 0)
(-0.0169076 -0.0649603 0)
(-0.0013525 -0.0197234 0)
(-0.00161203 0.0317083 0)
(-0.0131273 0.0761397 0)
(-0.0320451 0.104394 0)
(-0.0540587 0.119797 0)
(-0.0776298 0.125178 0)
(-0.101133 0.122449 0)
(-0.123737 0.112666 0)
(-0.144675 0.096258 0)
(-0.163297 0.0733912 0)
(-0.178849 0.0442786 0)
(-0.190413 0.009484 0)
(-0.196812 -0.0297896 0)
(-0.196589 -0.0713536 0)
(-0.188104 -0.111665 0)
(-0.1698 -0.145495 0)
(-0.141078 -0.166048 0)
(-0.103046 -0.16604 0)
(-0.0611736 -0.140546 0)
(-0.022973 -0.0915707 0)
(-0.00203646 -0.0293798 0)
(-0.00162296 0.0384593 0)
(-0.0132033 0.091453 0)
(-0.0321654 0.124626 0)
(-0.054076 0.142339 0)
(-0.0773588 0.148365 0)
(-0.10046 0.145197 0)
(-0.122689 0.134256 0)
(-0.143489 0.116103 0)
(-0.162445 0.0908862 0)
(-0.179046 0.0586573 0)
(-0.192586 0.0197045 0)
(-0.202017 -0.0251395 0)
(-0.205837 -0.0740709 0)
(-0.202052 -0.123774 0)
(-0.188293 -0.168714 0)
(-0.162569 -0.20071 0)
(-0.124231 -0.209327 0)
(-0.0775718 -0.18505 0)
(-0.0308893 -0.125754 0)
(-0.00306783 -0.0426235 0)
(-0.0016191 0.0451737 0)
(-0.0129927 0.10659 0)
(-0.0314086 0.144481 0)
(-0.052371 0.164236 0)
(-0.0742759 0.170697 0)
(-0.0957105 0.167009 0)
(-0.116168 0.155042 0)
(-0.135361 0.135535 0)
(-0.153172 0.108653 0)
(-0.169422 0.0742904 0)
(-0.183745 0.0324218 0)
(-0.195404 -0.0166054 0)
(-0.203108 -0.0716184 0)
(-0.204804 -0.129974 0)
(-0.197591 -0.186475 0)
(-0.178094 -0.23227 0)
(-0.14342 -0.253915 0)
(-0.0951973 -0.235962 0)
(-0.040852 -0.168425 0)
(-0.00460484 -0.0606144 0)
(-0.00166961 0.0517258 0)
(-0.0128045 0.121117 0)
(-0.0302384 0.163231 0)
(-0.0494425 0.184472 0)
(-0.0687981 0.190932 0)
(-0.0871543 0.186472 0)
(-0.104246 0.173498 0)
(-0.120131 0.152973 0)
(-0.135035 0.125125 0)
(-0.149175 0.0897256 0)
(-0.16261 0.0464548 0)
(-0.175058 -0.00486184 0)
(-0.185683 -0.0638354 0)
(-0.192728 -0.128881 0)
(-0.193252 -0.195877 0)
(-0.18288 -0.256439 0)
(-0.156509 -0.295139 0)
(-0.111737 -0.290248 0)
(-0.052718 -0.21952 0)
(-0.00685889 -0.0846709 0)
(-0.00193569 0.0584402 0)
(-0.0131826 0.1351 0)
(-0.0294131 0.180502 0)
(-0.0461205 0.202189 0)
(-0.0616971 0.207845 0)
(-0.0754664 0.202097 0)
(-0.0874901 0.187959 0)
(-0.0982612 0.166639 0)
(-0.108379 0.138461 0)
(-0.11848 0.103117 0)
(-0.129075 0.0600495 0)
(-0.140405 0.00861127 0)
(-0.152253 -0.0516027 0)
(-0.163483 -0.120273 0)
(-0.171706 -0.194966 0)
(-0.172263 -0.269101 0)
(-0.158589 -0.327176 0)
(-0.123523 -0.342583 0)
(-0.0656368 -0.277244 0)
(-0.010078 -0.116141 0)
(-0.00266756 0.0655843 0)
(-0.0151119 0.148431 0)
(-0.0302365 0.195648 0)
(-0.0437693 0.216199 0)
(-0.05418 0.219899 0)
(-0.0616773 0.212143 0)
(-0.0667747 0.196583 0)
(-0.0705301 0.174629 0)
(-0.0739259 0.1467 0)
(-0.0780079 0.112439 0)
(-0.083703 0.0711212 0)
(-0.0917548 0.0217478 0)
(-0.102627 -0.0367437 0)
(-0.116001 -0.105246 0)
(-0.130581 -0.183301 0)
(-0.142276 -0.267275 0)
(-0.144494 -0.344031 0)
(-0.125598 -0.385522 0)
(-0.0775412 -0.33718 0)
(-0.014467 -0.155908 0)
(-0.00441305 0.0754315 0)
(-0.0198805 0.162813 0)
(-0.0339748 0.209196 0)
(-0.0434044 0.225851 0)
(-0.0468492 0.225733 0)
(-0.0460546 0.214871 0)
(-0.0421225 0.197462 0)
(-0.0368264 0.174958 0)
(-0.0315147 0.147793 0)
(-0.0276037 0.115545 0)
(-0.0263616 0.0773799 0)
(-0.028956 0.0320889 0)
(-0.0364847 -0.0218118 0)
(-0.0494757 -0.0861296 0)
(-0.0680817 -0.162223 0)
(-0.0895137 -0.249962 0)
(-0.108987 -0.340882 0)
(-0.111768 -0.41055 0)
(-0.0844353 -0.391943 0)
(-0.0199784 -0.203968 0)
(-0.00802621 0.0882063 0)
(-0.0300879 0.17733 0)
(-0.0425846 0.219105 0)
(-0.0458555 0.228442 0)
(-0.0390989 0.222495 0)
(-0.0268881 0.207589 0)
(-0.0110336 0.188154 0)
(0.00582184 0.165423 0)
(0.0220476 0.139691 0)
(0.0359456 0.110432 0)
(0.0460261 0.0767447 0)
(0.0508247 0.037361 0)
(0.0487418 -0.00935472 0)
(0.0385263 -0.0656576 0)
(0.0185273 -0.134161 0)
(-0.0101564 -0.217912 0)
(-0.0463065 -0.314539 0)
(-0.0743844 -0.408685 0)
(-0.0796569 -0.430214 0)
(-0.0257397 -0.257098 0)
(-0.0146364 0.11432 0)
(-0.0453403 0.197556 0)
(-0.0518845 0.226583 0)
(-0.0436794 0.222162 0)
(-0.0212088 0.207211 0)
(0.00677045 0.187137 0)
(0.0379385 0.165693 0)
(0.0688581 0.143375 0)
(0.097841 0.120034 0)
(0.123101 0.0949484 0)
(0.143112 0.0671537 0)
(0.156297 0.0354342 0)
(0.160772 -0.00177571 0)
(0.154788 -0.0466987 0)
(0.135477 -0.102462 0)
(0.102242 -0.174085 0)
(0.0516571 -0.265166 0)
(-0.00276083 -0.373429 0)
(-0.051811 -0.439013 0)
(-0.0285116 -0.309865 0)
(-0.0256241 0.141907 0)
(-0.065654 0.209154 0)
(-0.0481383 0.216647 0)
(-0.0148387 0.19536 0)
(0.0337614 0.171669 0)
(0.0835437 0.14829 0)
(0.133176 0.126947 0)
(0.179299 0.107128 0)
(0.220857 0.0880736 0)
(0.256504 0.0688978 0)
(0.285071 0.0486419 0)
(0.305181 0.0262796 0)
(0.315016 0.000525064 0)
(0.312602 -0.0303553 0)
(0.294433 -0.0691868 0)
(0.258437 -0.120988 0)
(0.19684 -0.193177 0)
(0.118591 -0.29638 0)
(0.0177192 -0.395417 0)
(-0.0171862 -0.33894 0)
(-0.0187398 0.214617 0)
(-0.0197859 0.215344 0)
(0.0566075 0.181537 0)
(0.128599 0.140299 0)
(0.205398 0.110414 0)
(0.273511 0.0881627 0)
(0.335028 0.0709325 0)
(0.388548 0.0570129 0)
(0.434423 0.044982 0)
(0.472394 0.0338762 0)
(0.502067 0.0228745 0)
(0.522651 0.0112704 0)
(0.532841 -0.00176716 0)
(0.530885 -0.0172218 0)
(0.513622 -0.037094 0)
(0.478071 -0.0647994 0)
(0.414519 -0.108569 0)
(0.323886 -0.186714 0)
(0.173141 -0.29655 0)
(0.0429691 -0.335033 0)
(0.211339 0.12955 0)
(0.297302 0.100944 0)
(0.451202 0.0674633 0)
(0.543299 0.0443048 0)
(0.618038 0.0290713 0)
(0.673899 0.0198351 0)
(0.717793 0.0138362 0)
(0.752364 0.00979646 0)
(0.779589 0.00682582 0)
(0.800468 0.00442993 0)
(0.815434 0.00227855 0)
(0.824436 0.000152136 0)
(0.826977 -0.00217144 0)
(0.822055 -0.00488057 0)
(0.807794 -0.0085214 0)
(0.781215 -0.0136911 0)
(0.734288 -0.0229003 0)
(0.658591 -0.0407293 0)
(0.498159 -0.0743695 0)
(0.288346 -0.136216 0)
)
;

boundaryField
{
    movingWall
    {
        type            fixedValue;
        value           uniform (1 0 0);
    }
    fixedWalls
    {
        type            noSlip;
    }
    frontAndBack
    {
        type            empty;
    }
}


// ************************************************************************* //
