/*--------------------------------*- C++ -*----------------------------------*\
| =========                 |                                                 |
| \\      /  F ield         | OpenFOAM: The Open Source CFD Toolbox           |
|  \\    /   O peration     | Version:  4.1                                   |
|   \\  /    A nd           | Web:      www.OpenFOAM.org                      |
|    \\/     M anipulation  |                                                 |
\*---------------------------------------------------------------------------*/
FoamFile
{
    version     2.0;
    format      ascii;
    class       volVectorField;
    location    "2";
    object      U;
}
// * * * * * * * * * * * * * * * * * * * * * * * * * * * * * * * * * * * * * //

dimensions      [0 1 -1 0 0 0 0];

internalField   nonuniform List<vector> 
400
(
(8.74062e-05 -8.50488e-05 0)
(-0.000263433 0.000120021 0)
(-0.00139072 0.000281187 0)
(-0.0029592 0.000386676 0)
(-0.00479155 0.000424781 0)
(-0.00665723 0.000421893 0)
(-0.00842039 0.000386395 0)
(-0.00995384 0.000326543 0)
(-0.0111582 0.000243034 0)
(-0.0119366 0.00013632 0)
(-0.0122026 7.60144e-06 0)
(-0.0118883 -0.00013714 0)
(-0.010963 -0.000285973 0)
(-0.00945978 -0.000418904 0)
(-0.00748812 -0.000512052 0)
(-0.00526497 -0.000536346 0)
(-0.00306395 -0.000476331 0)
(-0.00125967 -0.000314305 0)
(-9.78393e-05 -9.73585e-05 0)
(0.000139867 0.000129682 0)
(-0.000115334 0.000256674 0)
(-0.00161376 0.00157307 0)
(-0.00467923 0.00265946 0)
(-0.00862511 0.00334666 0)
(-0.0130828 0.00360918 0)
(-0.0175741 0.00354175 0)
(-0.0217802 0.0032089 0)
(-0.0254047 0.00265964 0)
(-0.0282097 0.0019165 0)
(-0.0299761 0.000997503 0)
(-0.0305189 -6.93669e-05 0)
(-0.0297047 -0.00122749 0)
(-0.0274871 -0.00238124 0)
(-0.0239571 -0.00339148 0)
(-0.0193666 -0.0040921 0)
(-0.0141804 -0.00431006 0)
(-0.00898115 -0.00393427 0)
(-0.00453147 -0.00292716 0)
(-0.00134164 -0.00150967 0)
(-3.22032e-05 -7.45401e-05 0)
(-0.000307348 0.0014268 0)
(-0.00295087 0.00468818 0)
(-0.00774421 0.00718633 0)
(-0.0136528 0.00870972 0)
(-0.0201758 0.00925998 0)
(-0.0266749 0.00901422 0)
(-0.0327179 0.00811477 0)
(-0.0379005 0.00667126 0)
(-0.0418956 0.00474803 0)
(-0.0444042 0.00240126 0)
(-0.0451757 -0.000287583 0)
(-0.044029 -0.00317379 0)
(-0.0408979 -0.00602575 0)
(-0.0358977 -0.00851821 0)
(-0.0293583 -0.010266 0)
(-0.0218988 -0.0108797 0)
(-0.014305 -0.0101024 0)
(-0.00762646 -0.00787438 0)
(-0.00258622 -0.00461428 0)
(-0.000185713 -0.00104668 0)
(-0.000473157 0.00322813 0)
(-0.00413592 0.00909704 0)
(-0.0104637 0.0133174 0)
(-0.0180647 0.0157813 0)
(-0.0263233 0.0165971 0)
(-0.0344797 0.0160569 0)
(-0.0420353 0.0143989 0)
(-0.0485211 0.0118027 0)
(-0.0535557 0.00838021 0)
(-0.056783 0.00422983 0)
(-0.0578939 -0.000507607 0)
(-0.0566482 -0.00558786 0)
(-0.0529276 -0.010621 0)
(-0.0468209 -0.0150579 0)
(-0.0386753 -0.018239 0)
(-0.029212 -0.0194913 0)
(-0.0193901 -0.0183471 0)
(-0.0105656 -0.0146791 0)
(-0.0037173 -0.00908372 0)
(-0.000304267 -0.0025877 0)
(-0.000604255 0.00561115 0)
(-0.0051633 0.0147361 0)
(-0.0128852 0.020987 0)
(-0.022027 0.0244888 0)
(-0.0318637 0.025544 0)
(-0.0415334 0.0246064 0)
(-0.0504997 0.0220336 0)
(-0.0582579 0.018082 0)
(-0.0643948 0.0129086 0)
(-0.0685069 0.00664524 0)
(-0.0702173 -0.000518554 0)
(-0.0691954 -0.00824474 0)
(-0.0652176 -0.0159763 0)
(-0.0582773 -0.0229059 0)
(-0.0486699 -0.0280301 0)
(-0.037177 -0.0302901 0)
(-0.0249404 -0.0288917 0)
(-0.0137144 -0.0235502 0)
(-0.00484741 -0.0150222 0)
(-0.000391065 -0.00467909 0)
(-0.000722389 0.00848266 0)
(-0.00611507 0.0214575 0)
(-0.0151617 0.0300314 0)
(-0.0257802 0.0346665 0)
(-0.0371444 0.0359494 0)
(-0.0483064 0.0345505 0)
(-0.0587157 0.0309747 0)
(-0.0678574 0.0255591 0)
(-0.0753048 0.0184927 0)
(-0.0806123 0.00991423 0)
(-0.083321 2.89957e-05 0)
(-0.0829692 -0.0107623 0)
(-0.0791592 -0.0217489 0)
(-0.0716971 -0.031841 0)
(-0.0607284 -0.0396066 0)
(-0.0470288 -0.0434506 0)
(-0.0319245 -0.0420587 0)
(-0.0176988 -0.0348257 0)
(-0.0062544 -0.0226382 0)
(-0.000490664 -0.00734078 0)
(-0.000838788 0.0118344 0)
(-0.00706352 0.0292514 0)
(-0.0174387 0.0404491 0)
(-0.0295427 0.0463278 0)
(-0.042456 0.0478523 0)
(-0.0551634 0.0459715 0)
(-0.0671252 0.0413694 0)
(-0.0778431 0.0344649 0)
(-0.0868991 0.0254573 0)
(-0.093816 0.0144494 0)
(-0.0980422 0.0016056 0)
(-0.0989458 -0.0126715 0)
(-0.0958784 -0.0275608 0)
(-0.088344 -0.0416848 0)
(-0.0761981 -0.0530889 0)
(-0.0600855 -0.0594347 0)
(-0.0414675 -0.0585818 0)
(-0.0232911 -0.0493126 0)
(-0.0082814 -0.0325447 0)
(-0.000646117 -0.010794 0)
(-0.000966005 0.0156761 0)
(-0.00807537 0.0381373 0)
(-0.0198411 0.0522618 0)
(-0.0334826 0.0594966 0)
(-0.0479922 0.0612941 0)
(-0.0623088 0.0589514 0)
(-0.0759328 0.0533696 0)
(-0.0884169 0.0450495 0)
(-0.0993828 0.0341709 0)
(-0.108345 0.0207426 0)
(-0.114664 0.00480509 0)
(-0.117515 -0.0133342 0)
(-0.115934 -0.0328318 0)
(-0.108998 -0.0520607 0)
(-0.0960967 -0.0684677 0)
(-0.0775326 -0.078723 0)
(-0.0547409 -0.0794112 0)
(-0.0313917 -0.0681962 0)
(-0.0113633 -0.0457338 0)
(-0.00091863 -0.0154432 0)
(-0.0011154 0.0200649 0)
(-0.00920709 0.0482055 0)
(-0.0224626 0.0655538 0)
(-0.0377007 0.0742358 0)
(-0.0538241 0.07633 0)
(-0.0697514 0.0735644 0)
(-0.0850558 0.0671034 0)
(-0.0993825 0.0575307 0)
(-0.112434 0.0449748 0)
(-0.123755 0.0292812 0)
(-0.132655 0.0102634 0)
(-0.138126 -0.0120003 0)
(-0.138864 -0.0367871 0)
(-0.133436 -0.0623293 0)
(-0.120583 -0.0854661 0)
(-0.0999719 -0.101644 0)
(-0.0726771 -0.105594 0)
(-0.0429261 -0.0930427 0)
(-0.016029 -0.0636736 0)
(-0.0013918 -0.021959 0)
(-0.00130093 0.0250704 0)
(-0.0105207 0.0595537 0)
(-0.025384 0.0803895 0)
(-0.0422432 0.0905471 0)
(-0.0599 0.0929143 0)
(-0.0772837 0.0897463 0)
(-0.0940736 0.0825292 0)
(-0.110053 0.0719335 0)
(-0.125051 0.0580082 0)
(-0.138704 0.0403674 0)
(-0.150331 0.0184883 0)
(-0.158819 -0.00793497 0)
(-0.162588 -0.0384933 0)
(-0.159704 -0.0714808 0)
(-0.148161 -0.103256 0)
(-0.126674 -0.127945 0)
(-0.0954232 -0.137827 0)
(-0.0585998 -0.125519 0)
(-0.0228952 -0.0882583 0)
(-0.00219102 -0.0313297 0)
(-0.00155329 0.0308424 0)
(-0.0121085 0.0723582 0)
(-0.0286922 0.0968582 0)
(-0.0471082 0.108376 0)
(-0.0660349 0.110866 0)
(-0.0844551 0.10722 0)
(-0.102183 0.099318 0)
(-0.119185 0.0879241 0)
(-0.135461 0.0729927 0)
(-0.150805 0.0538566 0)
(-0.16465 0.0295707 0)
(-0.175925 -0.000696682 0)
(-0.182961 -0.0370603 0)
(-0.183503 -0.0781682 0)
(-0.174891 -0.120226 0)
(-0.154676 -0.156258 0)
(-0.12152 -0.175734 0)
(-0.0784041 -0.166804 0)
(-0.0325868 -0.121612 0)
(-0.00350549 -0.0449434 0)
(-0.00192036 0.037519 0)
(-0.0141401 0.0867152 0)
(-0.032547 0.114889 0)
(-0.0523114 0.12742 0)
(-0.0719585 0.129678 0)
(-0.0906037 0.125307 0)
(-0.108225 0.116656 0)
(-0.125015 0.104594 0)
(-0.141181 0.0889843 0)
(-0.156746 0.0688695 0)
(-0.171383 0.0428561 0)
(-0.184269 0.00951499 0)
(-0.193956 -0.0319584 0)
(-0.19824 -0.0808995 0)
(-0.19417 -0.133904 0)
(-0.178202 -0.183586 0)
(-0.147042 -0.216898 0)
(-0.100842 -0.216491 0)
(-0.0454998 -0.165498 0)
(-0.00560874 -0.0646035 0)
(-0.00252816 0.0455914 0)
(-0.0169156 0.103031 0)
(-0.0371687 0.134541 0)
(-0.0578181 0.147286 0)
(-0.0772145 0.148578 0)
(-0.0947614 0.142912 0)
(-0.110635 0.133182 0)
(-0.125315 0.120358 0)
(-0.139237 0.104237 0)
(-0.152721 0.0836141 0)
(-0.165801 0.0567101 0)
(-0.178124 0.0215407 0)
(-0.188821 -0.0234377 0)
(-0.196217 -0.0785261 0)
(-0.197685 -0.14137 0)
(-0.189063 -0.20535 0)
(-0.165244 -0.256183 0)
(-0.122041 -0.271242 0)
(-0.0612446 -0.220243 0)
(-0.00884908 -0.0924659 0)
(-0.00357 0.0553172 0)
(-0.0210485 0.121193 0)
(-0.0430582 0.155192 0)
(-0.0637219 0.16682 0)
(-0.0812452 0.166025 0)
(-0.0956757 0.158197 0)
(-0.107469 0.146813 0)
(-0.117496 0.132915 0)
(-0.126449 0.11627 0)
(-0.13499 0.095518 0)
(-0.143596 0.0686426 0)
(-0.152534 0.0332744 0)
(-0.161786 -0.0127571 0)
(-0.170629 -0.0708191 0)
(-0.17746 -0.140158 0)
(-0.178318 -0.216307 0)
(-0.167317 -0.286007 0)
(-0.135314 -0.323714 0)
(-0.0777454 -0.283008 0)
(-0.0135469 -0.130457 0)
(-0.00551788 0.0687486 0)
(-0.0273262 0.142517 0)
(-0.0504079 0.176957 0)
(-0.0693594 0.184958 0)
(-0.0823917 0.1802 0)
(-0.0908306 0.168867 0)
(-0.0955366 0.154963 0)
(-0.0979299 0.139487 0)
(-0.0989718 0.122173 0)
(-0.0996811 0.101598 0)
(-0.100972 0.0756907 0)
(-0.103748 0.0419363 0)
(-0.10891 -0.00221067 0)
(-0.116874 -0.0590293 0)
(-0.127607 -0.129544 0)
(-0.138255 -0.212502 0)
(-0.144002 -0.298322 0)
(-0.13158 -0.363216 0)
(-0.0901481 -0.346465 0)
(-0.0197229 -0.179563 0)
(-0.00910745 0.0855269 0)
(-0.0376901 0.165029 0)
(-0.0598364 0.196627 0)
(-0.0735389 0.197872 0)
(-0.0774494 0.187203 0)
(-0.075514 0.171248 0)
(-0.0691511 0.15426 0)
(-0.0605091 0.137007 0)
(-0.0507594 0.119131 0)
(-0.0411993 0.0992225 0)
(-0.0330468 0.0753156 0)
(-0.0276734 0.0450075 0)
(-0.0267383 0.00570372 0)
(-0.0316607 -0.0453771 0)
(-0.0441637 -0.110697 0)
(-0.0631109 -0.192385 0)
(-0.0869062 -0.286588 0)
(-0.100418 -0.377177 0)
(-0.0901786 -0.397339 0)
(-0.0264195 -0.236886 0)
(-0.015337 0.115188 0)
(-0.0510925 0.19285 0)
(-0.0658702 0.213871 0)
(-0.0669969 0.20232 0)
(-0.0545548 0.182805 0)
(-0.0365384 0.161146 0)
(-0.0147452 0.140961 0)
(0.00800984 0.122331 0)
(0.0305822 0.104576 0)
(0.0516267 0.086281 0)
(0.0698897 0.0656593 0)
(0.0838376 0.0406097 0)
(0.0914124 0.00878026 0)
(0.0905463 -0.032585 0)
(0.0780304 -0.0866696 0)
(0.0531424 -0.158019 0)
(0.0126689 -0.24896 0)
(-0.029583 -0.355904 0)
(-0.0647304 -0.419597 0)
(-0.0301073 -0.296294 0)
(-0.0255958 0.144646 0)
(-0.0676448 0.209529 0)
(-0.054923 0.211487 0)
(-0.0280522 0.184748 0)
(0.0126445 0.157317 0)
(0.0538848 0.132285 0)
(0.0950038 0.111294 0)
(0.133382 0.0935402 0)
(0.168619 0.077894 0)
(0.19989 0.0630011 0)
(0.226368 0.0473516 0)
(0.24678 0.0293182 0)
(0.259145 0.00705732 0)
(0.261152 -0.0215991 0)
(0.248777 -0.0596328 0)
(0.219641 -0.111954 0)
(0.165707 -0.185208 0)
(0.0964089 -0.288939 0)
(0.00576395 -0.387069 0)
(-0.0192315 -0.332411 0)
(-0.0181258 0.217013 0)
(-0.0182411 0.217397 0)
(0.0571833 0.180882 0)
(0.126174 0.136624 0)
(0.197961 0.104518 0)
(0.259813 0.0811327 0)
(0.31456 0.0638483 0)
(0.361583 0.0508003 0)
(0.401936 0.0403605 0)
(0.43592 0.0313135 0)
(0.463517 0.0225439 0)
(0.484082 0.0130305 0)
(0.49619 0.00164127 0)
(0.49776 -0.0128457 0)
(0.485076 -0.0325547 0)
(0.454683 -0.0609049 0)
(0.396259 -0.105839 0)
(0.310939 -0.185146 0)
(0.165637 -0.295164 0)
(0.0413595 -0.333777 0)
(0.211878 0.130386 0)
(0.299258 0.101823 0)
(0.453946 0.0677782 0)
(0.54547 0.0439605 0)
(0.618185 0.0282453 0)
(0.671045 0.0187703 0)
(0.711486 0.0127716 0)
(0.742706 0.00892454 0)
(0.767153 0.00628296 0)
(0.786184 0.00429113 0)
(0.800446 0.00255175 0)
(0.809928 0.000779489 0)
(0.814003 -0.00130879 0)
(0.811383 -0.00394028 0)
(0.799792 -0.00768104 0)
(0.77581 -0.0131069 0)
(0.730988 -0.0226646 0)
(0.656734 -0.0408387 0)
(0.497137 -0.0746387 0)
(0.288151 -0.136483 0)
)
;

boundaryField
{
    movingWall
    {
        type            fixedValue;
        value           uniform (1 0 0);
    }
    fixedWalls
    {
        type            noSlip;
    }
    frontAndBack
    {
        type            empty;
    }
}


// ************************************************************************* //
