/*--------------------------------*- C++ -*----------------------------------*\
| =========                 |                                                 |
| \\      /  F ield         | OpenFOAM: The Open Source CFD Toolbox           |
|  \\    /   O peration     | Version:  4.1                                   |
|   \\  /    A nd           | Web:      www.OpenFOAM.org                      |
|    \\/     M anipulation  |                                                 |
\*---------------------------------------------------------------------------*/
FoamFile
{
    version     2.0;
    format      ascii;
    class       volVectorField;
    location    "4.5";
    object      U;
}
// * * * * * * * * * * * * * * * * * * * * * * * * * * * * * * * * * * * * * //

dimensions      [0 1 -1 0 0 0 0];

internalField   nonuniform List<vector> 
400
(
(0.000154467 -0.000151644 0)
(-0.00015046 9.57663e-05 0)
(-0.0014508 0.000307579 0)
(-0.00338261 0.000460677 0)
(-0.00574253 0.000532582 0)
(-0.00824129 0.000553314 0)
(-0.0106904 0.000528269 0)
(-0.0128897 0.000462369 0)
(-0.0146547 0.000351209 0)
(-0.0157921 0.000192936 0)
(-0.016128 -8.47766e-06 0)
(-0.0155377 -0.000236684 0)
(-0.013991 -0.00046215 0)
(-0.011598 -0.000642966 0)
(-0.00861929 -0.000736432 0)
(-0.00547545 -0.000704873 0)
(-0.00263673 -0.00054485 0)
(-0.000606737 -0.000267058 0)
(0.000381 2.72778e-05 0)
(0.000264459 0.000250268 0)
(-9.51705e-05 0.000141846 0)
(-0.00184367 0.0017576 0)
(-0.00567494 0.0032217 0)
(-0.0108019 0.00425309 0)
(-0.0167945 0.0047676 0)
(-0.0230357 0.00484939 0)
(-0.0290657 0.00453868 0)
(-0.0344026 0.00385779 0)
(-0.0386009 0.0028059 0)
(-0.0412239 0.00140145 0)
(-0.0419017 -0.000288422 0)
(-0.0403948 -0.00212037 0)
(-0.0366762 -0.00387101 0)
(-0.0310126 -0.0052563 0)
(-0.0239793 -0.00599139 0)
(-0.0164682 -0.00585766 0)
(-0.00947822 -0.00482085 0)
(-0.00407056 -0.00303684 0)
(-0.000767924 -0.00105446 0)
(0.000124944 0.000412398 0)
(-0.000366534 0.00153566 0)
(-0.00374578 0.00568251 0)
(-0.0100741 0.00912315 0)
(-0.0180856 0.0114621 0)
(-0.0271788 0.0125958 0)
(-0.0365095 0.0126584 0)
(-0.045437 0.0117287 0)
(-0.0532857 0.00985327 0)
(-0.0594316 0.00705426 0)
(-0.0632733 0.00340733 0)
(-0.0643083 -0.000895511 0)
(-0.0622124 -0.00549545 0)
(-0.0569398 -0.00986191 0)
(-0.0488274 -0.0133399 0)
(-0.0386206 -0.0152743 0)
(-0.027506 -0.015167 0)
(-0.01685 -0.0129159 0)
(-0.00817873 -0.00888217 0)
(-0.0023211 -0.00418313 0)
(-4.87259e-05 -0.00024928 0)
(-0.000627328 0.00388842 0)
(-0.0055896 0.0115749 0)
(-0.0143017 0.0174872 0)
(-0.0249735 0.0213349 0)
(-0.0368441 0.0231081 0)
(-0.0488918 0.0230252 0)
(-0.0603617 0.0212148 0)
(-0.0704532 0.0177494 0)
(-0.0784238 0.0126789 0)
(-0.0835503 0.00614668 0)
(-0.0852123 -0.00151111 0)
(-0.0829756 -0.00968902 0)
(-0.0767065 -0.0175001 0)
(-0.0667043 -0.0238445 0)
(-0.0537604 -0.0275943 0)
(-0.039258 -0.0278549 0)
(-0.0248923 -0.0243536 0)
(-0.0127254 -0.0176118 0)
(-0.00401757 -0.00933727 0)
(-0.000217239 -0.00171169 0)
(-0.00085032 0.00717752 0)
(-0.00726055 0.0194217 0)
(-0.0181912 0.0283005 0)
(-0.0313324 0.0338417 0)
(-0.0457724 0.0362635 0)
(-0.0603439 0.0359245 0)
(-0.0742245 0.0330239 0)
(-0.0865387 0.0276598 0)
(-0.0964667 0.0199017 0)
(-0.103184 0.0099479 0)
(-0.105939 -0.0017328 0)
(-0.104137 -0.0142909 0)
(-0.0974626 -0.026461 0)
(-0.0860543 -0.0366318 0)
(-0.0706205 -0.0430741 0)
(-0.0526559 -0.0443104 0)
(-0.0341888 -0.0396972 0)
(-0.017971 -0.0297848 0)
(-0.00590143 -0.0168822 0)
(-0.000370391 -0.00405332 0)
(-0.00104734 0.011273 0)
(-0.0087545 0.0289956 0)
(-0.0216988 0.041294 0)
(-0.0370952 0.048699 0)
(-0.0539013 0.051794 0)
(-0.0708378 0.0511474 0)
(-0.0870554 0.0470572 0)
(-0.101648 0.0396427 0)
(-0.113754 0.0289686 0)
(-0.122464 0.0152481 0)
(-0.12689 -0.000967418 0)
(-0.126224 -0.0186309 0)
(-0.119878 -0.0361184 0)
(-0.107691 -0.0512644 0)
(-0.090126 -0.0615936 0)
(-0.0686495 -0.0647865 0)
(-0.045577 -0.0594938 0)
(-0.0245046 -0.0460269 0)
(-0.00825144 -0.0272606 0)
(-0.000557153 -0.00738782 0)
(-0.00121549 0.0160923 0)
(-0.0100482 0.040129 0)
(-0.0247561 0.0562717 0)
(-0.0421395 0.0657177 0)
(-0.0610504 0.0695477 0)
(-0.0801345 0.0686124 0)
(-0.0985532 0.0633403 0)
(-0.115413 0.0538667 0)
(-0.129852 0.0402174 0)
(-0.140912 0.0225603 0)
(-0.147574 0.00145007 0)
(-0.148806 -0.0219575 0)
(-0.143679 -0.0457488 0)
(-0.131605 -0.0672096 0)
(-0.112599 -0.0829913 0)
(-0.0878628 -0.0896196 0)
(-0.0598193 -0.0845448 0)
(-0.032974 -0.0673527 0)
(-0.0113986 -0.0413005 0)
(-0.000825687 -0.0120372 0)
(-0.0013537 0.0215159 0)
(-0.0111139 0.0525742 0)
(-0.027275 0.0729252 0)
(-0.0462858 0.0845708 0)
(-0.0669148 0.0892148 0)
(-0.0877699 0.0880645 0)
(-0.10806 0.0817175 0)
(-0.126953 0.0703221 0)
(-0.143639 0.0538313 0)
(-0.157167 0.0322995 0)
(-0.166449 0.00618375 0)
(-0.170265 -0.0233796 0)
(-0.167345 -0.0543232 0)
(-0.156584 -0.0834784 0)
(-0.137345 -0.106583 0)
(-0.110218 -0.118712 0)
(-0.0773486 -0.115473 0)
(-0.0439794 -0.0949075 0)
(-0.0157234 -0.0601113 0)
(-0.00124201 -0.0184988 0)
(-0.00146014 0.027425 0)
(-0.0119234 0.0660623 0)
(-0.0291607 0.090893 0)
(-0.0493229 0.104836 0)
(-0.0711079 0.110346 0)
(-0.0931214 0.10906 0)
(-0.114653 0.101796 0)
(-0.134986 0.0887233 0)
(-0.153429 0.0697013 0)
(-0.169127 0.0446122 0)
(-0.181027 0.013714 0)
(-0.187833 -0.0220306 0)
(-0.188023 -0.0606037 0)
(-0.179985 -0.0986031 0)
(-0.162285 -0.130983 0)
(-0.134504 -0.151225 0)
(-0.0979056 -0.152396 0)
(-0.0578876 -0.129778 0)
(-0.0216243 -0.0850738 0)
(-0.00188985 -0.0275012 0)
(-0.00154022 0.0336737 0)
(-0.0124849 0.0802554 0)
(-0.0303733 0.109696 0)
(-0.0510928 0.125914 0)
(-0.0732698 0.132245 0)
(-0.0955461 0.130842 0)
(-0.117326 0.122805 0)
(-0.138064 0.108352 0)
(-0.157266 0.0872533 0)
(-0.174279 0.0591882 0)
(-0.18823 0.0241379 0)
(-0.197923 -0.0172608 0)
(-0.201776 -0.0632901 0)
(-0.197813 -0.110666 0)
(-0.183809 -0.153932 0)
(-0.158027 -0.185146 0)
(-0.120127 -0.194334 0)
(-0.0745685 -0.172499 0)
(-0.0294855 -0.117637 0)
(-0.00288746 -0.040012 0)
(-0.00162374 0.0401793 0)
(-0.0128897 0.0948628 0)
(-0.0309974 0.128835 0)
(-0.0515835 0.147087 0)
(-0.0731926 0.154009 0)
(-0.0945562 0.152352 0)
(-0.115231 0.143584 0)
(-0.134909 0.128019 0)
(-0.153367 0.105374 0)
(-0.17027 0.0751336 0)
(-0.185071 0.0369698 0)
(-0.196882 -0.00892107 0)
(-0.204316 -0.0613671 0)
(-0.20532 -0.117637 0)
(-0.19711 -0.172476 0)
(-0.176569 -0.217151 0)
(-0.141194 -0.238679 0)
(-0.0930086 -0.222382 0)
(-0.0395702 -0.15897 0)
(-0.00440095 -0.0572582 0)
(-0.00176991 0.0468672 0)
(-0.0133847 0.109555 0)
(-0.031363 0.1477 0)
(-0.0510834 0.167441 0)
(-0.0709982 0.174461 0)
(-0.090034 0.172198 0)
(-0.107954 0.162587 0)
(-0.124772 0.146093 0)
(-0.140601 0.12244 0)
(-0.155512 0.0909649 0)
(-0.169411 0.0510513 0)
(-0.181887 0.00241157 0)
(-0.192018 -0.054501 0)
(-0.198029 -0.117917 0)
(-0.197041 -0.183523 0)
(-0.184879 -0.242888 0)
(-0.156791 -0.280916 0)
(-0.110901 -0.276726 0)
(-0.051796 -0.209312 0)
(-0.00665273 -0.080664 0)
(-0.00212964 0.054078 0)
(-0.0144411 0.124435 0)
(-0.0320696 0.165956 0)
(-0.0501736 0.186137 0)
(-0.0671207 0.192357 0)
(-0.0822306 0.188824 0)
(-0.0955564 0.178039 0)
(-0.107531 0.160658 0)
(-0.118659 0.136473 0)
(-0.129471 0.104733 0)
(-0.140378 0.0645963 0)
(-0.151547 0.0153277 0)
(-0.162714 -0.0433794 0)
(-0.172725 -0.11097 0)
(-0.179201 -0.184733 0)
(-0.177584 -0.257885 0)
(-0.161535 -0.315045 0)
(-0.124396 -0.33031 0)
(-0.0653297 -0.267134 0)
(-0.00990389 -0.111716 0)
(-0.00294142 0.0620495 0)
(-0.0169617 0.139341 0)
(-0.0342421 0.182898 0)
(-0.0499447 0.201914 0)
(-0.0624114 0.206062 0)
(-0.0717583 0.200358 0)
(-0.0784536 0.187933 0)
(-0.0834901 0.16963 0)
(-0.0877879 0.145338 0)
(-0.0923455 0.11427 0)
(-0.0980661 0.075439 0)
(-0.105693 0.0277703 0)
(-0.115695 -0.0296985 0)
(-0.127758 -0.0976267 0)
(-0.14057 -0.175254 0)
(-0.150054 -0.258654 0)
(-0.149683 -0.334601 0)
(-0.128177 -0.375465 0)
(-0.0780342 -0.328115 0)
(-0.0143697 -0.151438 0)
(-0.00474037 0.0729874 0)
(-0.0221375 0.155853 0)
(-0.0389353 0.198913 0)
(-0.0510953 0.213983 0)
(-0.0570799 0.214072 0)
(-0.0584575 0.204905 0)
(-0.0562509 0.190199 0)
(-0.0521677 0.170864 0)
(-0.0475321 0.14684 0)
(-0.0437746 0.117312 0)
(-0.0422133 0.0812081 0)
(-0.0440854 0.0372474 0)
(-0.0505512 -0.0159763 0)
(-0.0621783 -0.0800777 0)
(-0.0791049 -0.156149 0)
(-0.0985078 -0.243759 0)
(-0.115544 -0.334216 0)
(-0.115646 -0.403195 0)
(-0.085742 -0.384714 0)
(-0.0200022 -0.199919 0)
(-0.00835549 0.0869706 0)
(-0.0324264 0.172782 0)
(-0.0478243 0.211671 0)
(-0.0540503 0.219383 0)
(-0.0500418 0.213323 0)
(-0.040129 0.199614 0)
(-0.0260112 0.18228 0)
(-0.0102581 0.162082 0)
(0.0055007 0.138887 0)
(0.0195112 0.111832 0)
(0.0301847 0.0798085 0)
(0.0359387 0.0414717 0)
(0.0350672 -0.00477029 0)
(0.0262449 -0.0610399 0)
(0.00780693 -0.129752 0)
(-0.0191091 -0.213709 0)
(-0.0531782 -0.310272 0)
(-0.0788614 -0.403975 0)
(-0.0815658 -0.425218 0)
(-0.0259064 -0.253913 0)
(-0.0148791 0.114204 0)
(-0.0472487 0.19536 0)
(-0.0563708 0.222032 0)
(-0.0508868 0.216017 0)
(-0.0310504 0.200643 0)
(-0.00532317 0.18122 0)
(0.0241304 0.161195 0)
(0.0539772 0.140692 0)
(0.082543 0.119225 0)
(0.107983 0.0958028 0)
(0.128662 0.0692854 0)
(0.142868 0.0383787 0)
(0.148589 0.00152769 0)
(0.143975 -0.0434159 0)
(0.126101 -0.099451 0)
(0.0943805 -0.171438 0)
(0.0454635 -0.262745 0)
(-0.00703371 -0.37091 0)
(-0.0539155 -0.436188 0)
(-0.0287979 -0.307826 0)
(-0.0256713 0.142484 0)
(-0.0665457 0.208674 0)
(-0.0507106 0.21445 0)
(-0.0194447 0.191819 0)
(0.0269339 0.167584 0)
(0.074646 0.144428 0)
(0.122582 0.123878 0)
(0.167542 0.105175 0)
(0.208539 0.0873274 0)
(0.244204 0.0692595 0)
(0.273286 0.0498797 0)
(0.294285 0.0280914 0)
(0.30525 0.00259784 0)
(0.304089 -0.0283016 0)
(0.287197 -0.0673613 0)
(0.252471 -0.119515 0)
(0.192134 -0.192029 0)
(0.115256 -0.295377 0)
(0.0159058 -0.394273 0)
(-0.0175107 -0.33801 0)
(-0.0185894 0.215253 0)
(-0.0195489 0.215657 0)
(0.0562718 0.180942 0)
(0.127124 0.138893 0)
(0.202343 0.108595 0)
(0.268769 0.0863389 0)
(0.32876 0.0694258 0)
(0.381122 0.0560188 0)
(0.426323 0.0445723 0)
(0.464129 0.0340183 0)
(0.4941 0.0234588 0)
(0.515348 0.0121436 0)
(0.526442 -0.000771049 0)
(0.525506 -0.0162552 0)
(0.509261 -0.0362774 0)
(0.474661 -0.0642131 0)
(0.411932 -0.108229 0)
(0.322069 -0.186559 0)
(0.17208 -0.296405 0)
(0.0427356 -0.334878 0)
(0.211505 0.129799 0)
(0.297828 0.10115 0)
(0.451796 0.0674722 0)
(0.543535 0.0441293 0)
(0.617549 0.0287973 0)
(0.672531 0.0195504 0)
(0.715587 0.0136099 0)
(0.749512 0.00966826 0)
(0.776373 0.00680736 0)
(0.797191 0.00451025 0)
(0.81237 0.00243089 0)
(0.82179 0.000342156 0)
(0.824867 -0.00197888 0)
(0.820512 -0.00471502 0)
(0.806773 -0.00840446 0)
(0.780612 -0.0136332 0)
(0.733967 -0.0228994 0)
(0.658425 -0.0407714 0)
(0.498061 -0.0744222 0)
(0.288329 -0.136261 0)
)
;

boundaryField
{
    movingWall
    {
        type            fixedValue;
        value           uniform (1 0 0);
    }
    fixedWalls
    {
        type            noSlip;
    }
    frontAndBack
    {
        type            empty;
    }
}


// ************************************************************************* //
