/*--------------------------------*- C++ -*----------------------------------*\
| =========                 |                                                 |
| \\      /  F ield         | OpenFOAM: The Open Source CFD Toolbox           |
|  \\    /   O peration     | Version:  4.1                                   |
|   \\  /    A nd           | Web:      www.OpenFOAM.org                      |
|    \\/     M anipulation  |                                                 |
\*---------------------------------------------------------------------------*/
FoamFile
{
    version     2.0;
    format      ascii;
    class       volScalarField;
    location    "0.0006";
    object      p;
}
// * * * * * * * * * * * * * * * * * * * * * * * * * * * * * * * * * * * * * //

dimensions      [1 -1 -2 0 0 0 0];

internalField   nonuniform List<scalar> 
441
(
100000
99999.9
99999.7
100000
100000
99999.5
99999.9
100000
100000
100002
100001
100001
100001
100000
100000
100000
100000
100000
100000
100000
100000
100000
100000
100000
100000
100000
100000
100000
100000
100000
100000
100001
100000
100000
100000
100000
100000
100000
100000
100000
100000
100000
99999.9
99999.8
99999.8
99999.9
99999.9
99999.8
100000
100000
100000
100001
100001
100001
100001
100001
100001
100001
100001
100001
100001
100001
100001
99999.9
99999.6
99999.7
99999.7
99999.7
99999.8
99999.9
100000
100000
100000
100000
100000
100001
100001
100001
100001
100001
100001
100001
100001
100001
99999.6
99999
99999.2
99999.1
99999.2
99999.4
99999.5
99999.8
100000
100000
100000
100001
100001
100001
100001
100001
100001
100001
100001
100002
100001
99997.5
99998.4
99998.2
99998.5
99998.6
99998.9
99999.1
99999.4
99999.7
100000
100000
100001
100001
100001
100001
100002
100002
100002
100002
100002
100002
99996.8
99997.3
99997.4
99997.7
99997.9
99998.3
99998.6
99999
99999.5
99999.9
100000
100001
100001
100002
100002
100002
100002
100003
100003
100003
100002
99996.1
99996.4
99996.4
99996.8
99997
99997.5
99998
99998.5
99999.1
99999.8
100000
100001
100002
100002
100003
100003
100003
100004
100004
100004
100004
99994.8
99995
99995.2
99995.6
99996
99996.5
99997.2
99997.9
99998.7
99999.6
100000
100001
100002
100003
100004
100004
100005
100005
100005
100006
100005
99993.4
99993.5
99993.8
99994.2
99994.7
99995.4
99996.3
99997.2
99998.3
99999.4
100001
100002
100003
100004
100005
100005
100006
100007
100007
100007
100007
99991.5
99991.7
99992
99992.5
99993.2
99994.1
99995.2
99996.4
99997.8
99999.2
100001
100002
100003
100005
100006
100007
100008
100008
100009
100009
100010
99989.4
99989.6
99990
99990.6
99991.5
99992.6
99994
99995.5
99997.2
99998.9
100001
100003
100004
100006
100007
100009
100010
100010
100011
100011
100011
99986.6
99986.9
99987.4
99988.3
99989.4
99990.9
99992.5
99994.5
99996.5
99998.7
100001
100003
100005
100007
100009
100011
100012
100013
100013
100014
100012
99983.8
99984.2
99984.7
99985.9
99987.2
99989
99991
99993.4
99995.8
99998.4
100001
100004
100006
100009
100011
100013
100014
100016
100016
100017
100016
99979.4
99980.1
99980.8
99982.6
99984.3
99986.8
99989.3
99992.2
99995.1
99998.1
100001
100004
100007
100010
100013
100015
100018
100019
100021
100021
100020
99975.9
99976.8
99977.5
99979.8
99981.8
99984.9
99987.8
99991.1
99994.4
99997.8
100001
100005
100008
100011
100015
100018
100021
100023
100025
100025
100026
99968.1
99970.4
99971.5
99975.4
99978.2
99982.4
99985.9
99990
99993.7
99997.5
100001
100005
100009
100013
100017
100020
100025
100027
100034
100031
100044
99964
99966.7
99967.9
99972.8
99975.9
99980.8
99984.7
99989.2
99993.2
99997.3
100001
100005
100010
100014
100018
100022
100028
100031
100037
100038
100045
99947.3
99956.4
99958.6
99967.7
99971.9
99978.7
99983.2
99988.4
99992.7
99997.2
100001
100006
100010
100015
100020
100025
100032
100036
100047
100048
100059
99942.7
99953.4
99956.3
99966.3
99970.8
99978
99982.7
99988.1
99992.5
99997.1
100001
100006
100011
100015
100021
100025
100033
100037
100048
100051
100064
99894.7
99939.5
99945.5
99962.8
99968.3
99977.1
99982
99987.8
99992.3
99997
100001
100006
100011
100015
100021
100026
100035
100041
100059
100065
100112
)
;

boundaryField
{
    movingWall
    {
        type            zeroGradient;
    }
    fixedWalls
    {
        type            zeroGradient;
    }
    frontAndBack
    {
        type            empty;
    }
}


// ************************************************************************* //
