/*--------------------------------*- C++ -*----------------------------------*\
| =========                 |                                                 |
| \\      /  F ield         | OpenFOAM: The Open Source CFD Toolbox           |
|  \\    /   O peration     | Version:  4.1                                   |
|   \\  /    A nd           | Web:      www.OpenFOAM.org                      |
|    \\/     M anipulation  |                                                 |
\*---------------------------------------------------------------------------*/
FoamFile
{
    version     2.0;
    format      ascii;
    class       volVectorField;
    location    "0.168";
    object      U;
}
// * * * * * * * * * * * * * * * * * * * * * * * * * * * * * * * * * * * * * //

dimensions      [0 1 -1 0 0 0 0];

internalField   nonuniform List<vector> 
100
(
(-0.00139766 0.000740096 0)
(-0.00418723 0.00108523 0)
(-0.0119201 0.00144575 0)
(-0.016337 0.000652687 0)
(-0.0211362 0.000400793 0)
(-0.0225294 -0.000988919 0)
(-0.0206189 -0.0016577 0)
(-0.0164043 -0.00316621 0)
(-0.00669369 -0.00305826 0)
(-0.00225378 -0.00239778 0)
(-0.00294681 0.00489678 0)
(-0.010921 0.00936795 0)
(-0.0261092 0.0110039 0)
(-0.0355989 0.00834606 0)
(-0.0443826 0.00619755 0)
(-0.0468546 0.000181764 0)
(-0.0430866 -0.00412061 0)
(-0.0341715 -0.0110448 0)
(-0.0157549 -0.0109751 0)
(-0.00417463 -0.00653535 0)
(-0.00381816 0.0146083 0)
(-0.0147381 0.0240321 0)
(-0.0339136 0.0263594 0)
(-0.0464051 0.0184881 0)
(-0.0581196 0.0119604 0)
(-0.0622915 -0.00281717 0)
(-0.0591602 -0.0141456 0)
(-0.0484187 -0.0310599 0)
(-0.0246111 -0.0331706 0)
(-0.00655772 -0.0225701 0)
(-0.00607419 0.0232704 0)
(-0.0205407 0.0391746 0)
(-0.0448712 0.042855 0)
(-0.0611529 0.032214 0)
(-0.0765644 0.0226082 0)
(-0.0841086 0.00101934 0)
(-0.0834374 -0.0172931 0)
(-0.0722386 -0.0456185 0)
(-0.0415702 -0.0522825 0)
(-0.0116712 -0.0372362 0)
(-0.00716768 0.0414512 0)
(-0.023763 0.0624984 0)
(-0.0517015 0.067482 0)
(-0.0713245 0.0494428 0)
(-0.0917535 0.0353765 0)
(-0.104775 0.00307745 0)
(-0.110773 -0.0258445 0)
(-0.102594 -0.0741635 0)
(-0.0671765 -0.0943331 0)
(-0.0199522 -0.076762 0)
(-0.0139721 0.0535984 0)
(-0.0367005 0.0830085 0)
(-0.0702695 0.0905471 0)
(-0.0943945 0.071577 0)
(-0.118588 0.0568316 0)
(-0.137227 0.0196727 0)
(-0.15109 -0.0181621 0)
(-0.14722 -0.0890762 0)
(-0.108652 -0.133713 0)
(-0.0354575 -0.123514 0)
(-0.0153886 0.0930511 0)
(-0.0378601 0.118045 0)
(-0.0712413 0.1264 0)
(-0.0937654 0.0963304 0)
(-0.117606 0.0790279 0)
(-0.135149 0.0336256 0)
(-0.155758 -0.0154969 0)
(-0.157251 -0.119034 0)
(-0.131357 -0.207486 0)
(-0.0491421 -0.224393 0)
(-0.0398971 0.105079 0)
(-0.0703791 0.137334 0)
(-0.0839294 0.146751 0)
(-0.089919 0.116741 0)
(-0.0913752 0.0997238 0)
(-0.0894318 0.0571224 0)
(-0.103836 0.00673837 0)
(-0.10418 -0.112681 0)
(-0.11101 -0.237867 0)
(-0.0520836 -0.302449 0)
(-0.0362367 0.206456 0)
(-0.0248596 0.160313 0)
(0.00924419 0.149449 0)
(0.0513535 0.101684 0)
(0.0848403 0.0807417 0)
(0.128468 0.0432973 0)
(0.135696 0.00138054 0)
(0.150115 -0.114478 0)
(0.0759687 -0.258783 0)
(0.017784 -0.395166 0)
(0.147096 0.160453 0)
(0.235474 0.0890745 0)
(0.384464 0.0723168 0)
(0.461775 0.040413 0)
(0.522429 0.0260097 0)
(0.570686 0.00691091 0)
(0.570782 -0.00782636 0)
(0.567627 -0.0469131 0)
(0.408612 -0.0913887 0)
(0.219739 -0.195035 0)
)
;

boundaryField
{
    movingWall
    {
        type            fixedValue;
        value           uniform (1 0 0);
    }
    fixedWalls
    {
        type            noSlip;
    }
    frontAndBack
    {
        type            empty;
    }
}


// ************************************************************************* //
