/*--------------------------------*- C++ -*----------------------------------*\
| =========                 |                                                 |
| \\      /  F ield         | OpenFOAM: The Open Source CFD Toolbox           |
|  \\    /   O peration     | Version:  4.1                                   |
|   \\  /    A nd           | Web:      www.OpenFOAM.org                      |
|    \\/     M anipulation  |                                                 |
\*---------------------------------------------------------------------------*/
FoamFile
{
    version     2.0;
    format      ascii;
    class       volVectorField;
    location    "0.0967";
    object      U;
}
// * * * * * * * * * * * * * * * * * * * * * * * * * * * * * * * * * * * * * //

dimensions      [0 1 -1 0 0 0 0];

internalField   nonuniform List<vector> 
441
(
(0.00380566 -0.00488242 0)
(0.00997533 -0.00254054 0)
(-0.000635134 -2.2188e-165 0)
(0.00200412 -3.41036e-266 0)
(-0.0083705 -0.00801675 0)
(-0.00200412 -3.11113e-232 0)
(-1.15486e-202 -5.74549e-203 0)
(-1.43632e-203 -7.54462e-228 0)
(-1.75478e-212 -3.29442e-213 0)
(-0.00626631 9.28843e-266 0)
(-0.0768616 0.025066 0)
(-0.0964115 0.013077 0)
(-0.108367 0.00595235 0)
(-0.0950087 0.000350679 0)
(-0.077768 -0.00173139 0)
(-0.0513134 -0.00309585 0)
(-0.0286376 -0.00218851 0)
(-0.00863169 -0.00157898 0)
(0.00331093 0.000818222 0)
(0.0048023 0.00159601 0)
(0.00463892 0.00306104 0)
(0.00395084 -0.00871497 0)
(-0.00073394 0.00690356 0)
(-0.0276571 0.00865652 0)
(-0.0602394 0.0108175 0)
(-0.108985 0.0111225 0)
(-0.155273 -0.00316277 0)
(-0.198955 -0.000130752 0)
(-0.241056 0.00171481 0)
(-0.278405 0.013535 0)
(-0.315903 0.0684458 0)
(-0.341167 0.062833 0)
(-0.334898 0.0188669 0)
(-0.31894 -0.00799108 0)
(-0.274921 -0.0317547 0)
(-0.223316 -0.042174 0)
(-0.158711 -0.0473792 0)
(-0.100533 -0.0403275 0)
(-0.0491446 -0.031661 0)
(-0.0148098 -0.0137246 0)
(-0.000694782 -0.00364327 0)
(0.00504533 0.00660781 0)
(0.00780141 -0.00860091 0)
(-0.00516641 0.0286801 0)
(-0.055251 0.0581038 0)
(-0.12358 0.0787033 0)
(-0.207403 0.0858112 0)
(-0.294241 0.0857242 0)
(-0.387745 0.0827955 0)
(-0.464089 0.0768727 0)
(-0.538834 0.0719709 0)
(-0.575413 0.0674617 0)
(-0.571018 0.0450113 0)
(-0.551793 -0.00785772 0)
(-0.512921 -0.053329 0)
(-0.445035 -0.0950568 0)
(-0.364268 -0.116957 0)
(-0.267092 -0.126165 0)
(-0.177224 -0.110552 0)
(-0.0954472 -0.0878294 0)
(-0.0382337 -0.0465176 0)
(-0.00785626 -0.0187122 0)
(0.00648097 0.00779097 0)
(0.00646595 -0.011703 0)
(-0.0168012 0.0717627 0)
(-0.0997912 0.127007 0)
(-0.198075 0.165479 0)
(-0.314092 0.18215 0)
(-0.431084 0.180017 0)
(-0.546459 0.171507 0)
(-0.646449 0.153754 0)
(-0.728521 0.12742 0)
(-0.776687 0.0978503 0)
(-0.785839 0.0389288 0)
(-0.760718 -0.0403976 0)
(-0.708406 -0.114938 0)
(-0.619103 -0.181633 0)
(-0.512113 -0.219979 0)
(-0.382969 -0.236008 0)
(-0.261262 -0.211418 0)
(-0.146985 -0.172367 0)
(-0.0648699 -0.10042 0)
(-0.0158606 -0.0497589 0)
(0.0080844 0.0056222 0)
(7.07426e-165 0.00161649 0)
(-0.0255839 0.134471 0)
(-0.145484 0.238563 0)
(-0.268627 0.291486 0)
(-0.415166 0.317648 0)
(-0.557772 0.31615 0)
(-0.699677 0.296754 0)
(-0.819922 0.257764 0)
(-0.919434 0.201418 0)
(-0.977953 0.125518 0)
(-0.994952 0.0294505 0)
(-0.970926 -0.0850198 0)
(-0.910511 -0.194175 0)
(-0.804745 -0.291726 0)
(-0.673907 -0.352006 0)
(-0.511328 -0.377958 0)
(-0.355388 -0.345031 0)
(-0.201693 -0.285393 0)
(-0.0919358 -0.175898 0)
(-0.0187285 -0.0925723 0)
(0.014698 0.000798916 0)
(-5.73251e-266 0.00595378 0)
(-0.0924656 0.222158 0)
(-0.203429 0.367935 0)
(-0.351363 0.437055 0)
(-0.511839 0.471115 0)
(-0.67621 0.465621 0)
(-0.834827 0.434292 0)
(-0.97461 0.373774 0)
(-1.0895 0.286376 0)
(-1.16553 0.172563 0)
(-1.20002 0.0322073 0)
(-1.18442 -0.125901 0)
(-1.12494 -0.280884 0)
(-1.00795 -0.419939 0)
(-0.856615 -0.512977 0)
(-0.659626 -0.557116 0)
(-0.46555 -0.520008 0)
(-0.265864 -0.439065 0)
(-0.122968 -0.281355 0)
(-0.0215379 -0.159673 0)
(0.0161381 0.00297126 0)
(-0.0238151 0.0973769 0)
(-0.128956 0.334206 0)
(-0.256553 0.497815 0)
(-0.419123 0.597961 0)
(-0.598985 0.641589 0)
(-0.782072 0.637569 0)
(-0.961183 0.594248 0)
(-1.12108 0.511434 0)
(-1.25705 0.392055 0)
(-1.35375 0.235776 0)
(-1.40849 0.0488295 0)
(-1.40801 -0.160433 0)
(-1.35652 -0.36964 0)
(-1.23513 -0.561058 0)
(-1.06821 -0.698882 0)
(-0.836191 -0.771026 0)
(-0.601643 -0.736511 0)
(-0.342714 -0.630547 0)
(-0.163972 -0.416908 0)
(-0.0083048 -0.23358 0)
(6.00148e-266 -0.00403454 0)
(-0.0175933 0.161237 0)
(-0.123439 0.456074 0)
(-0.279822 0.658615 0)
(-0.463103 0.780249 0)
(-0.662879 0.834229 0)
(-0.864996 0.828072 0)
(-1.0624 0.773569 0)
(-1.24316 0.669489 0)
(-1.40115 0.519469 0)
(-1.52301 0.323424 0)
(-1.60403 0.0869089 0)
(-1.62673 -0.178987 0)
(-1.59304 -0.453239 0)
(-1.47719 -0.710559 0)
(-1.30292 -0.911254 0)
(-1.04087 -1.02802 0)
(-0.763951 -1.01187 0)
(-0.440918 -0.883281 0)
(-0.212341 -0.611088 0)
(-0.00384259 -0.333329 0)
(2.64461e-24 -1.04854e-24 0)
(-0.0156054 0.234632 0)
(-0.126666 0.594495 0)
(-0.299451 0.835752 0)
(-0.497133 0.979049 0)
(-0.712664 1.04205 0)
(-0.929418 1.03536 0)
(-1.14283 0.971401 0)
(-1.34203 0.848955 0)
(-1.5217 0.671618 0)
(-1.66948 0.437982 0)
(-1.77938 0.153138 0)
(-1.83183 -0.171985 0)
(-1.82526 -0.517717 0)
(-1.72737 -0.85257 0)
(-1.55863 -1.133 0)
(-1.27707 -1.31339 0)
(-0.963227 -1.33279 0)
(-0.571562 -1.18775 0)
(-0.283803 -0.846057 0)
(-0.00507958 -0.454114 0)
(1.0739e-76 -6.61152e-25 0)
(-0.0134583 0.304049 0)
(-0.123234 0.741643 0)
(-0.304378 1.02975 0)
(-0.509537 1.19399 0)
(-0.73364 1.26686 0)
(-0.958727 1.25813 0)
(-1.18123 1.18636 0)
(-1.3933 1.04789 0)
(-1.58954 0.847085 0)
(-1.76073 0.580372 0)
(-1.89944 0.24962 0)
(-1.98603 -0.134289 0)
(-2.01535 -0.556984 0)
(-1.94943 -0.979883 0)
(-1.80292 -1.36067 0)
(-1.51962 -1.6296 0)
(-1.18043 -1.71586 0)
(-0.723305 -1.5734 0)
(-0.368338 -1.17183 0)
(-0.00736489 -0.632886 0)
(2.98213e-164 -2.68475e-77 0)
(-0.0133002 0.367782 0)
(-0.12279 0.883617 0)
(-0.307463 1.21965 0)
(-0.513769 1.40595 0)
(-0.737876 1.48944 0)
(-0.962015 1.48084 0)
(-1.18306 1.4048 0)
(-1.39753 1.25574 0)
(-1.59973 1.03862 0)
(-1.78586 0.747035 0)
(-1.94698 0.37908 0)
(-2.06737 -0.0564592 0)
(-2.13757 -0.552211 0)
(-2.11801 -1.06593 0)
(-2.01421 -1.55932 0)
(-1.75628 -1.93982 0)
(-1.41683 -2.12409 0)
(-0.914013 -2.00846 0)
(-0.493259 -1.55006 0)
(-0.0822168 -0.836085 0)
(1.79735e-265 0.0134048 0)
(-0.0136132 0.441013 0)
(-0.117811 1.03798 0)
(-0.297845 1.42218 0)
(-0.495463 1.62507 0)
(-0.707789 1.71622 0)
(-0.918449 1.70325 0)
(-1.12387 1.62252 0)
(-1.32619 1.46412 0)
(-1.51902 1.23562 0)
(-1.70587 0.926962 0)
(-1.87704 0.531292 0)
(-2.02377 0.0553623 0)
(-2.13403 -0.505634 0)
(-2.17033 -1.10541 0)
(-2.12876 -1.72108 0)
(-1.9268 -2.23359 0)
(-1.61736 -2.5568 0)
(-1.08922 -2.51162 0)
(-0.590312 -1.99767 0)
(-0.0765232 -1.14624 0)
(0.0536192 -0.0779698 0)
(-0.0166529 0.494808 0)
(-0.119281 1.16489 0)
(-0.295806 1.59439 0)
(-0.479911 1.81258 0)
(-0.669021 1.91062 0)
(-0.852376 1.89437 0)
(-1.02347 1.81164 0)
(-1.19465 1.64941 0)
(-1.3562 1.41812 0)
(-1.5236 1.10465 0)
(-1.68418 0.697849 0)
(-1.84296 0.201092 0)
(-1.98295 -0.402846 0)
(-2.07947 -1.07027 0)
(-2.11514 -1.79723 0)
(-2.00303 -2.45288 0)
(-1.7718 -2.95482 0)
(-1.24467 -3.04452 0)
(-0.717487 -2.55634 0)
(0.043866 -1.48736 0)
(2.47817e-231 -0.0134048 0)
(-0.0209564 0.579941 0)
(-0.119129 1.32019 0)
(-0.284834 1.78673 0)
(-0.444984 1.99943 0)
(-0.596968 2.09193 0)
(-0.737304 2.05816 0)
(-0.856004 1.9669 0)
(-0.976261 1.79709 0)
(-1.08466 1.56551 0)
(-1.20909 1.25513 0)
(-1.33476 0.850776 0)
(-1.48194 0.35434 0)
(-1.63267 -0.269001 0)
(-1.77972 -0.973485 0)
(-1.90016 -1.79627 0)
(-1.91349 -2.58097 0)
(-1.81916 -3.31333 0)
(-1.40005 -3.58417 0)
(-0.892657 -3.27949 0)
(-0.00291002 -1.90183 0)
(5.83474e-202 4.58949e-184 0)
(-0.0367306 0.628037 0)
(-0.148262 1.42273 0)
(-0.313521 1.91659 0)
(-0.448523 2.11936 0)
(-0.546365 2.20157 0)
(-0.626023 2.15019 0)
(-0.666254 2.05059 0)
(-0.71212 1.8771 0)
(-0.739465 1.65173 0)
(-0.795664 1.35576 0)
(-0.856701 0.972299 0)
(-0.967387 0.501794 0)
(-1.09823 -0.101591 0)
(-1.28219 -0.798536 0)
(-1.4706 -1.65518 0)
(-1.64295 -2.53033 0)
(-1.71995 -3.45145 0)
(-1.52018 -3.97945 0)
(-1.10576 -3.92971 0)
(-0.0115016 -2.41049 0)
(1.8358e-183 -1.53273e-184 0)
(-0.0552866 0.773193 0)
(-0.181465 1.60132 0)
(-0.33627 2.09662 0)
(-0.433049 2.23377 0)
(-0.460752 2.27678 0)
(-0.462563 2.17894 0)
(-0.407284 2.05748 0)
(-0.359955 1.87131 0)
(-0.287019 1.65111 0)
(-0.251923 1.37399 0)
(-0.223419 1.02271 0)
(-0.264977 0.598472 0)
(-0.342584 0.0443281 0)
(-0.519351 -0.59752 0)
(-0.747965 -1.4385 0)
(-1.05456 -2.32794 0)
(-1.35547 -3.44062 0)
(-1.48401 -4.20488 0)
(-1.39185 -4.80482 0)
(-0.466483 -3.05488 0)
(4.40254e-254 -4.58949e-184 0)
(-0.121158 0.851144 0)
(-0.31519 1.69067 0)
(-0.4615 2.16331 0)
(-0.509015 2.23427 0)
(-0.418089 2.23053 0)
(-0.308429 2.09189 0)
(-0.114535 1.94911 0)
(0.0552157 1.75599 0)
(0.258499 1.54547 0)
(0.406129 1.2948 0)
(0.548432 0.987803 0)
(0.593148 0.627125 0)
(0.600124 0.156621 0)
(0.445605 -0.383696 0)
(0.232312 -1.11198 0)
(-0.230981 -1.9118 0)
(-0.689255 -2.9959 0)
(-1.43986 -3.94186 0)
(-1.63835 -4.85618 0)
(-2.07434 -3.8786 0)
(-2.5968e-264 -0.216253 0)
(-0.17782 1.23134 0)
(-0.413849 1.94607 0)
(-0.495736 2.31295 0)
(-0.443453 2.19055 0)
(-0.19904 2.09002 0)
(0.0542649 1.87489 0)
(0.4029 1.70041 0)
(0.71074 1.49837 0)
(1.05048 1.30243 0)
(1.31914 1.08601 0)
(1.57894 0.83535 0)
(1.72525 0.551926 0)
(1.8294 0.188601 0)
(1.74985 -0.220208 0)
(1.59508 -0.772904 0)
(1.14555 -1.3902 0)
(0.604707 -2.26356 0)
(-0.332485 -3.21191 0)
(-1.07232 -4.2611 0)
(-1.84006 -4.54224 0)
(-0.865013 -2.31844 0)
(-0.400663 1.40869 0)
(-0.72509 1.97994 0)
(-0.515846 2.18717 0)
(-0.23117 1.92051 0)
(0.330339 1.73368 0)
(0.799636 1.48182 0)
(1.35991 1.29455 0)
(1.82104 1.10634 0)
(2.29871 0.939102 0)
(2.67277 0.769409 0)
(3.02895 0.584257 0)
(3.24814 0.385477 0)
(3.42764 0.135538 0)
(3.39484 -0.133798 0)
(3.31001 -0.504283 0)
(2.8767 -0.89975 0)
(2.39905 -1.51912 0)
(1.3723 -2.23567 0)
(0.464091 -3.35451 0)
(-0.704362 -4.00772 0)
(-0.701635 -2.96439 0)
(-0.257701 2.41908 0)
(-0.105542 2.0559 0)
(0.682068 1.86934 0)
(1.33125 1.33601 0)
(2.1513 1.0791 0)
(2.78342 0.838 0)
(3.44304 0.684902 0)
(3.9612 0.555186 0)
(4.46543 0.451189 0)
(4.8497 0.355561 0)
(5.20445 0.25859 0)
(5.42215 0.158738 0)
(5.60127 0.0387026 0)
(5.58355 -0.0897301 0)
(5.52763 -0.264864 0)
(5.15804 -0.457859 0)
(4.76586 -0.790931 0)
(3.83262 -1.24486 0)
(2.86825 -2.25327 0)
(1.09321 -3.33043 0)
(-0.0464992 -3.7987 0)
(1.66682 1.66915 0)
(2.70116 0.974177 0)
(4.54056 0.748132 0)
(5.37975 0.423919 0)
(6.24891 0.286798 0)
(6.76174 0.178582 0)
(7.24449 0.121787 0)
(7.57084 0.0812934 0)
(7.87111 0.0546294 0)
(8.0749 0.0338122 0)
(8.25719 0.0152395 0)
(8.34579 -0.00216563 0)
(8.41688 -0.0233162 0)
(8.35741 -0.04405 0)
(8.29466 -0.0792074 0)
(8.00619 -0.111936 0)
(7.74966 -0.200821 0)
(6.99535 -0.293143 0)
(6.262 -0.624865 0)
(4.04565 -0.997081 0)
(2.00493 -1.81761 0)
)
;

boundaryField
{
    movingWall
    {
        type            fixedValue;
        value           uniform (10 0 0);
    }
    fixedWalls
    {
        type            noSlip;
    }
    frontAndBack
    {
        type            empty;
    }
}


// ************************************************************************* //
