/*--------------------------------*- C++ -*----------------------------------*\
| =========                 |                                                 |
| \\      /  F ield         | OpenFOAM: The Open Source CFD Toolbox           |
|  \\    /   O peration     | Version:  4.1                                   |
|   \\  /    A nd           | Web:      www.OpenFOAM.org                      |
|    \\/     M anipulation  |                                                 |
\*---------------------------------------------------------------------------*/
FoamFile
{
    version     2.0;
    format      ascii;
    class       volVectorField;
    location    "0.04";
    object      U;
}
// * * * * * * * * * * * * * * * * * * * * * * * * * * * * * * * * * * * * * //

dimensions      [0 1 -1 0 0 0 0];

internalField   nonuniform List<vector> 
100
(
(-0.00202693 0.00204287 0)
(-0.00507342 0.00195907 0)
(-0.00982287 0.00183081 0)
(-0.0120409 0.000880629 0)
(-0.0139529 0.000464379 0)
(-0.0140372 -0.000681059 0)
(-0.0124814 -0.00112763 0)
(-0.0103016 -0.00216351 0)
(-0.00543576 -0.00233201 0)
(-0.00225087 -0.0024427 0)
(-0.00279106 0.00506467 0)
(-0.00771757 0.00570995 0)
(-0.0145812 0.00536654 0)
(-0.0179407 0.00298882 0)
(-0.0206082 0.00186878 0)
(-0.020729 -0.00107821 0)
(-0.0185476 -0.00227697 0)
(-0.0152441 -0.00509063 0)
(-0.00823357 -0.00553305 0)
(-0.00307089 -0.00522108 0)
(-0.00329017 0.0126976 0)
(-0.00880287 0.0136702 0)
(-0.0164859 0.0124156 0)
(-0.0202023 0.00658432 0)
(-0.0232394 0.00359643 0)
(-0.0234132 -0.00323258 0)
(-0.0211812 -0.00642537 0)
(-0.0175674 -0.0130161 0)
(-0.00973016 -0.0145812 0)
(-0.00386734 -0.0140596 0)
(-0.00513124 0.0168816 0)
(-0.0125455 0.0185002 0)
(-0.0225424 0.0168827 0)
(-0.0273311 0.0093529 0)
(-0.0309928 0.00553487 0)
(-0.0313288 -0.0033518 0)
(-0.0288605 -0.00743819 0)
(-0.0243226 -0.0164714 0)
(-0.0141439 -0.0185284 0)
(-0.00600448 -0.0183388 0)
(-0.00625836 0.0308977 0)
(-0.0148256 0.0310393 0)
(-0.0262771 0.0279555 0)
(-0.0316672 0.0145061 0)
(-0.035965 0.00813845 0)
(-0.0364593 -0.00629439 0)
(-0.0343705 -0.0132757 0)
(-0.0295032 -0.0289405 0)
(-0.0181943 -0.0332907 0)
(-0.0084103 -0.0351851 0)
(-0.0122107 0.0371801 0)
(-0.0255816 0.037649 0)
(-0.0401024 0.0337764 0)
(-0.0472632 0.0183635 0)
(-0.0517473 0.0110885 0)
(-0.0527359 -0.00521207 0)
(-0.0514976 -0.0130532 0)
(-0.0455703 -0.0323141 0)
(-0.0314923 -0.0379934 0)
(-0.0154555 -0.0437598 0)
(-0.0146018 0.0701148 0)
(-0.0306463 0.0587457 0)
(-0.0463541 0.0512418 0)
(-0.0540298 0.025121 0)
(-0.0589069 0.0145965 0)
(-0.0599072 -0.00831362 0)
(-0.0606398 -0.0201812 0)
(-0.0552592 -0.0515051 0)
(-0.0430616 -0.0642244 0)
(-0.0227687 -0.0847014 0)
(-0.0359749 0.0802425 0)
(-0.062759 0.0676298 0)
(-0.0708685 0.0571568 0)
(-0.0777116 0.0297477 0)
(-0.0779582 0.018284 0)
(-0.0791708 -0.00392994 0)
(-0.0854384 -0.0151784 0)
(-0.0808685 -0.0491677 0)
(-0.0764103 -0.0668241 0)
(-0.0406974 -0.106865 0)
(-0.0310532 0.172601 0)
(-0.0397178 0.0924713 0)
(-0.0334125 0.0694894 0)
(-0.0291838 0.0301504 0)
(-0.0244424 0.0177301 0)
(-0.0184299 -0.00393119 0)
(-0.0255733 -0.0177876 0)
(-0.0178807 -0.0656221 0)
(-0.0345188 -0.105427 0)
(-0.0134067 -0.209327 0)
(0.140716 0.144193 0)
(0.193392 0.0669335 0)
(0.291865 0.0473772 0)
(0.316807 0.019411 0)
(0.338536 0.00995515 0)
(0.347609 -0.00351145 0)
(0.328644 -0.0110931 0)
(0.321737 -0.0386951 0)
(0.219758 -0.0621468 0)
(0.158828 -0.144477 0)
)
;

boundaryField
{
    movingWall
    {
        type            fixedValue;
        value           uniform (1 0 0);
    }
    fixedWalls
    {
        type            noSlip;
    }
    frontAndBack
    {
        type            empty;
    }
}


// ************************************************************************* //
