/*--------------------------------*- C++ -*----------------------------------*\
| =========                 |                                                 |
| \\      /  F ield         | OpenFOAM: The Open Source CFD Toolbox           |
|  \\    /   O peration     | Version:  4.1                                   |
|   \\  /    A nd           | Web:      www.OpenFOAM.org                      |
|    \\/     M anipulation  |                                                 |
\*---------------------------------------------------------------------------*/
FoamFile
{
    version     2.0;
    format      ascii;
    class       volVectorField;
    location    "0.198";
    object      U;
}
// * * * * * * * * * * * * * * * * * * * * * * * * * * * * * * * * * * * * * //

dimensions      [0 1 -1 0 0 0 0];

internalField   nonuniform List<vector> 
100
(
(-0.00129142 0.000674264 0)
(-0.00400694 0.00106797 0)
(-0.0118498 0.00148775 0)
(-0.0166123 0.000761102 0)
(-0.0217895 0.000544744 0)
(-0.0235185 -0.00083657 0)
(-0.021628 -0.00155987 0)
(-0.0170632 -0.00310796 0)
(-0.00674811 -0.00297511 0)
(-0.00204989 -0.002179 0)
(-0.00288357 0.00467265 0)
(-0.0111006 0.0094241 0)
(-0.0269481 0.0114113 0)
(-0.0374186 0.00896969 0)
(-0.0471431 0.0067588 0)
(-0.0503116 0.000393555 0)
(-0.0465261 -0.00456821 0)
(-0.0367613 -0.0120617 0)
(-0.0167415 -0.0119512 0)
(-0.00407064 -0.00660452 0)
(-0.00383394 0.0146617 0)
(-0.0154356 0.0249243 0)
(-0.0358761 0.0280339 0)
(-0.0499707 0.0205275 0)
(-0.0632373 0.0137385 0)
(-0.0686443 -0.00196094 0)
(-0.0657686 -0.0149122 0)
(-0.053952 -0.0334287 0)
(-0.0273463 -0.035789 0)
(-0.00667348 -0.0232039 0)
(-0.00612832 0.023742 0)
(-0.021496 0.0411663 0)
(-0.0474423 0.0461021 0)
(-0.0657975 0.0359771 0)
(-0.083442 0.0259251 0)
(-0.0931295 0.00271276 0)
(-0.0935958 -0.0186005 0)
(-0.0816885 -0.0505346 0)
(-0.0471472 -0.0587632 0)
(-0.0122472 -0.0401756 0)
(-0.0072269 0.0425131 0)
(-0.0246847 0.06591 0)
(-0.0543559 0.0728306 0)
(-0.0763712 0.0557905 0)
(-0.0997992 0.0415234 0)
(-0.116108 0.00724727 0)
(-0.124558 -0.0261688 0)
(-0.11638 -0.081072 0)
(-0.0763911 -0.105888 0)
(-0.0212905 -0.0835172 0)
(-0.0139604 0.0550263 0)
(-0.0370623 0.0875699 0)
(-0.0718759 0.0978767 0)
(-0.0979387 0.0806801 0)
(-0.125017 0.0663661 0)
(-0.14702 0.0270529 0)
(-0.163807 -0.017075 0)
(-0.160476 -0.098604 0)
(-0.118618 -0.152852 0)
(-0.0375302 -0.137135 0)
(-0.0152222 0.0944762 0)
(-0.0368508 0.123079 0)
(-0.0700804 0.134928 0)
(-0.0926982 0.107494 0)
(-0.117434 0.0914209 0)
(-0.136039 0.0441078 0)
(-0.158234 -0.0122865 0)
(-0.160751 -0.128572 0)
(-0.13551 -0.230272 0)
(-0.0511609 -0.243306 0)
(-0.0395758 0.105332 0)
(-0.0679396 0.14089 0)
(-0.0790785 0.15404 0)
(-0.0821001 0.126817 0)
(-0.0804228 0.111235 0)
(-0.0750349 0.067167 0)
(-0.0875283 0.0105665 0)
(-0.0893827 -0.12033 0)
(-0.102468 -0.258358 0)
(-0.0518381 -0.322348 0)
(-0.0363228 0.205232 0)
(-0.0238709 0.160888 0)
(0.0130572 0.15269 0)
(0.0594269 0.106834 0)
(0.0980651 0.0866974 0)
(0.147234 0.048637 0)
(0.158492 0.00449053 0)
(0.173087 -0.115657 0)
(0.0926802 -0.266422 0)
(0.0210304 -0.404784 0)
(0.146563 0.159753 0)
(0.234142 0.0886241 0)
(0.384006 0.0723784 0)
(0.463553 0.0409183 0)
(0.527441 0.0266809 0)
(0.578926 0.00740868 0)
(0.581609 -0.00808089 0)
(0.578744 -0.048213 0)
(0.417174 -0.0924345 0)
(0.221975 -0.195458 0)
)
;

boundaryField
{
    movingWall
    {
        type            fixedValue;
        value           uniform (1 0 0);
    }
    fixedWalls
    {
        type            noSlip;
    }
    frontAndBack
    {
        type            empty;
    }
}


// ************************************************************************* //
