/*--------------------------------*- C++ -*----------------------------------*\
| =========                 |                                                 |
| \\      /  F ield         | OpenFOAM: The Open Source CFD Toolbox           |
|  \\    /   O peration     | Version:  4.1                                   |
|   \\  /    A nd           | Web:      www.OpenFOAM.org                      |
|    \\/     M anipulation  |                                                 |
\*---------------------------------------------------------------------------*/
FoamFile
{
    version     2.0;
    format      ascii;
    class       volScalarField;
    location    "0.0031";
    object      p;
}
// * * * * * * * * * * * * * * * * * * * * * * * * * * * * * * * * * * * * * //

dimensions      [1 -1 -2 0 0 0 0];

internalField   nonuniform List<scalar> 
441
(
100000
99999.9
99999.7
100000
100000
99999.6
100000
100000
100000
100001
100001
100001
100001
100001
100001
100001
100001
100001
100001
100001
100001
100000
100000
100000
100000
100000
100000
100000
100000
100000
100000
100000
100000
100000
100000
100000
100001
100000
100001
100000
100001
100000
100000
99999.9
100000
99999.9
100000
99999.9
100000
100000
100000
100001
100001
100001
100001
100001
100001
100001
100001
100001
100001
100001
100001
100000
100000
100000
100000
100000
100000
100000
100000
100000
100000
100000
100000
100001
100001
100001
100001
100001
100001
100001
100001
100001
100000
99999.5
99999.7
99999.6
99999.8
99999.8
99999.9
100000
100000
100000
100000
100001
100001
100001
100001
100001
100001
100001
100001
100001
100001
99998.7
99999.5
99999.3
99999.5
99999.5
99999.7
99999.8
99999.9
100000
100000
100000
100001
100001
100001
100001
100001
100001
100001
100001
100001
100001
99998.4
99998.7
99998.8
99999
99999.1
99999.3
99999.5
99999.7
99999.9
100000
100000
100001
100001
100001
100001
100001
100001
100002
100001
100002
100001
99998.3
99998.5
99998.4
99998.7
99998.8
99999
99999.2
99999.5
99999.8
100000
100000
100001
100001
100001
100001
100002
100002
100002
100002
100002
100002
99997.5
99997.6
99997.7
99997.9
99998.1
99998.4
99998.7
99999.1
99999.5
100000
100000
100001
100001
100002
100002
100002
100002
100003
100003
100003
100002
99997
99997.1
99997.1
99997.4
99997.6
99998
99998.3
99998.8
99999.3
99999.8
100000
100001
100001
100002
100002
100003
100003
100003
100003
100004
100002
99995.8
99995.8
99995.9
99996.3
99996.6
99997.1
99997.6
99998.3
99998.9
99999.6
100000
100001
100002
100002
100003
100004
100004
100004
100005
100005
100005
99995.1
99995.1
99995.2
99995.6
99995.9
99996.5
99997
99997.8
99998.5
99999.4
100000
100001
100002
100003
100004
100004
100005
100005
100005
100006
100005
99993.1
99993.3
99993.4
99994
99994.4
99995.3
99995.9
99997
99998
99999.1
100000
100001
100003
100004
100005
100005
100006
100007
100007
100008
100005
99992.3
99992.4
99992.5
99993.2
99993.5
99994.5
99995.2
99996.4
99997.5
99998.8
100000
100001
100003
100004
100005
100006
100007
100008
100008
100008
100007
99989.2
99989.6
99989.6
99990.9
99991.3
99992.8
99993.8
99995.4
99996.7
99998.3
100000
100002
100003
100005
100007
100008
100010
100010
100012
100011
100009
99988.4
99988.8
99988.6
99990
99990.3
99992
99992.9
99994.7
99996.2
99997.9
99999.7
100001
100003
100005
100007
100008
100011
100011
100013
100012
100009
99982.7
99984.3
99984
99986.7
99987.2
99989.9
99991.2
99993.5
99995.3
99997.4
99999.6
100001
100004
100006
100009
100010
100015
100014
100022
100016
100032
99982.2
99983.9
99983
99985.8
99986.2
99989
99990.4
99992.9
99994.8
99996.9
99999.2
100001
100004
100005
100009
100010
100015
100015
100021
100020
100029
99969.3
99976.7
99975.4
99981.5
99982.4
99986.8
99988.6
99991.8
99994
99996.5
99999.1
100001
100004
100006
100010
100012
100018
100019
100030
100030
100043
99969.1
99977.1
99975.1
99980.8
99981.7
99986.2
99988.1
99991.4
99993.7
99996.2
99998.7
100001
100004
100005
100009
100010
100017
100017
100028
100029
100046
99925.8
99968
99967
99978.9
99979.9
99985.6
99987.6
99991.2
99993.6
99996.2
99998.8
100001
100004
100006
100010
100011
100020
100021
100040
100047
100100
)
;

boundaryField
{
    movingWall
    {
        type            zeroGradient;
    }
    fixedWalls
    {
        type            zeroGradient;
    }
    frontAndBack
    {
        type            empty;
    }
}


// ************************************************************************* //
