/*--------------------------------*- C++ -*----------------------------------*\
| =========                 |                                                 |
| \\      /  F ield         | OpenFOAM: The Open Source CFD Toolbox           |
|  \\    /   O peration     | Version:  4.1                                   |
|   \\  /    A nd           | Web:      www.OpenFOAM.org                      |
|    \\/     M anipulation  |                                                 |
\*---------------------------------------------------------------------------*/
FoamFile
{
    version     2.0;
    format      ascii;
    class       volVectorField;
    location    "4";
    object      U;
}
// * * * * * * * * * * * * * * * * * * * * * * * * * * * * * * * * * * * * * //

dimensions      [0 1 -1 0 0 0 0];

internalField   nonuniform List<vector> 
400
(
(0.000142836 -0.000140049 0)
(-0.000167133 9.90891e-05 0)
(-0.00143202 0.000301816 0)
(-0.00329642 0.000447014 0)
(-0.00556343 0.000513793 0)
(-0.00795504 0.00053122 0)
(-0.0102917 0.000505017 0)
(-0.0123851 0.000440547 0)
(-0.0140637 0.000334155 0)
(-0.0151488 0.000184226 0)
(-0.0154784 -5.85656e-06 0)
(-0.0149348 -0.000221448 0)
(-0.0134857 -0.000435644 0)
(-0.0112284 -0.000609557 0)
(-0.00840141 -0.000702886 0)
(-0.00539707 -0.000678853 0)
(-0.0026594 -0.000532308 0)
(-0.000674469 -0.000270354 0)
(0.000323598 1.25203e-05 0)
(0.000247954 0.000234104 0)
(-9.74213e-05 0.000158751 0)
(-0.00179384 0.00171702 0)
(-0.00548047 0.00311471 0)
(-0.010395 0.00409045 0)
(-0.0161227 0.00456831 0)
(-0.0220729 0.00463208 0)
(-0.0278102 0.00432439 0)
(-0.0328828 0.0036707 0)
(-0.0368767 0.0026728 0)
(-0.0393861 0.00134768 0)
(-0.0400651 -0.000244961 0)
(-0.038684 -0.00197573 0)
(-0.035207 -0.00363987 0)
(-0.0298712 -0.0049727 0)
(-0.0232045 -0.00570379 0)
(-0.0160406 -0.0056186 0)
(-0.00932427 -0.00467181 0)
(-0.00407781 -0.00299457 0)
(-0.000821109 -0.00109518 0)
(0.00010713 0.000354378 0)
(-0.000354182 0.00150683 0)
(-0.0035945 0.00548876 0)
(-0.00964499 0.0087672 0)
(-0.0172898 0.0109781 0)
(-0.0259514 0.0120313 0)
(-0.0348252 0.0120635 0)
(-0.0433066 0.0111597 0)
(-0.0507636 0.0093729 0)
(-0.056616 0.00672809 0)
(-0.0603029 0.00329345 0)
(-0.0613502 -0.000759968 0)
(-0.0594431 -0.00510751 0)
(-0.0545215 -0.0092611 0)
(-0.0468828 -0.012608 0)
(-0.0372119 -0.0145239 0)
(-0.0266214 -0.0145193 0)
(-0.0164061 -0.0124691 0)
(-0.00803421 -0.00868092 0)
(-0.00232182 -0.00418777 0)
(-6.13446e-05 -0.000331934 0)
(-0.000598518 0.00375668 0)
(-0.00532714 0.0111138 0)
(-0.0136237 0.0167417 0)
(-0.0237784 0.0203794 0)
(-0.0350643 0.0220299 0)
(-0.0465099 0.0219154 0)
(-0.0574051 0.0201746 0)
(-0.067002 0.0168894 0)
(-0.0746088 0.0121107 0)
(-0.0795469 0.00596502 0)
(-0.0812252 -0.00124947 0)
(-0.0792177 -0.00898457 0)
(-0.0733738 -0.0164217 0)
(-0.0639509 -0.0225279 0)
(-0.0516771 -0.0262251 0)
(-0.0378544 -0.0266351 0)
(-0.0240943 -0.023454 0)
(-0.0123805 -0.0171221 0)
(-0.00394233 -0.00921739 0)
(-0.000221643 -0.00178408 0)
(-0.000806702 0.0068847 0)
(-0.00689733 0.0185783 0)
(-0.0172895 0.0270269 0)
(-0.0297832 0.0322717 0)
(-0.0435102 0.0345341 0)
(-0.0573623 0.0341763 0)
(-0.0705681 0.0314104 0)
(-0.0823095 0.0263453 0)
(-0.0918199 0.0190473 0)
(-0.0983189 0.00968639 0)
(-0.101084 -0.00132558 0)
(-0.0995249 -0.0132196 0)
(-0.093312 -0.0248238 0)
(-0.0825451 -0.0346179 0)
(-0.0678751 -0.0409437 0)
(-0.0507173 -0.0423546 0)
(-0.0330099 -0.0381761 0)
(-0.0174034 -0.0288565 0)
(-0.00574065 -0.0165314 0)
(-0.000365922 -0.00407357 0)
(-0.000992283 0.0107717 0)
(-0.00831559 0.0276778 0)
(-0.0206315 0.0393841 0)
(-0.035288 0.0464061 0)
(-0.051294 0.0493138 0)
(-0.0674364 0.0486754 0)
(-0.0829199 0.0448023 0)
(-0.0968966 0.0378246 0)
(-0.108557 0.027797 0)
(-0.117032 0.014891 0)
(-0.121453 -0.000417056 0)
(-0.121018 -0.0171815 0)
(-0.115125 -0.033892 0)
(-0.103584 -0.0484948 0)
(-0.0868143 -0.0586073 0)
(-0.0662178 -0.0619624 0)
(-0.0440232 -0.0571948 0)
(-0.0237066 -0.0445077 0)
(-0.00799898 -0.0265656 0)
(-0.00054281 -0.00731067 0)
(-0.00115461 0.0153515 0)
(-0.00957307 0.0382788 0)
(-0.0236129 0.0536601 0)
(-0.0402194 0.0626404 0)
(-0.0583017 0.0662648 0)
(-0.0765756 0.0653772 0)
(-0.0942575 0.0604181 0)
(-0.11051 0.0515295 0)
(-0.124517 0.0387184 0)
(-0.135349 0.0220958 0)
(-0.141999 0.00212413 0)
(-0.14343 -0.0201575 0)
(-0.138701 -0.0429618 0)
(-0.127204 -0.0636977 0)
(-0.108938 -0.0791266 0)
(-0.0850656 -0.0858538 0)
(-0.0579451 -0.0813472 0)
(-0.0319571 -0.0651027 0)
(-0.0110518 -0.0401471 0)
(-0.0008001 -0.0118142 0)
(-0.00129435 0.020529 0)
(-0.0106538 0.0501834 0)
(-0.0261714 0.0696073 0)
(-0.0444386 0.0807124 0)
(-0.0642841 0.0851432 0)
(-0.084387 0.0840916 0)
(-0.10401 0.078162 0)
(-0.122371 0.0675019 0)
(-0.138696 0.0520317 0)
(-0.152046 0.0317321 0)
(-0.161328 0.00695207 0)
(-0.165303 -0.0212974 0)
(-0.162685 -0.0510758 0)
(-0.152359 -0.0793354 0)
(-0.133699 -0.101929 0)
(-0.107297 -0.114037 0)
(-0.0752792 -0.111335 0)
(-0.0427861 -0.0918279 0)
(-0.0152859 -0.058397 0)
(-0.0012034 -0.0180802 0)
(-0.00141092 0.0262148 0)
(-0.0115373 0.0631811 0)
(-0.0282281 0.0869357 0)
(-0.0477592 0.100277 0)
(-0.0688879 0.105576 0)
(-0.0902889 0.10445 0)
(-0.111303 0.0977125 0)
(-0.131254 0.0855186 0)
(-0.149469 0.0676766 0)
(-0.165087 0.0439748 0)
(-0.177028 0.0145492 0)
(-0.18396 -0.0197646 0)
(-0.184332 -0.0570636 0)
(-0.17653 -0.0940452 0)
(-0.159148 -0.125764 0)
(-0.131823 -0.145818 0)
(-0.0958576 -0.1474 0)
(-0.0566081 -0.12585 0)
(-0.0211124 -0.0827271 0)
(-0.00183682 -0.0268395 0)
(-0.00150977 0.0322949 0)
(-0.0122319 0.0769972 0)
(-0.0297436 0.105242 0)
(-0.0500229 0.120812 0)
(-0.0717503 0.126949 0)
(-0.0936302 0.125774 0)
(-0.115112 0.11837 0)
(-0.135678 0.104923 0)
(-0.154836 0.085127 0)
(-0.171906 0.0585457 0)
(-0.185965 0.025025 0)
(-0.195764 -0.0149215 0)
(-0.199679 -0.0596672 0)
(-0.195729 -0.10599 0)
(-0.181731 -0.148496 0)
(-0.156034 -0.179344 0)
(-0.118407 -0.18873 0)
(-0.0733548 -0.167828 0)
(-0.0289367 -0.114647 0)
(-0.00282009 -0.03907 0)
(-0.0016194 0.0387161 0)
(-0.0128205 0.0913995 0)
(-0.0307838 0.124098 0)
(-0.0511863 0.141674 0)
(-0.0726155 0.148426 0)
(-0.0938537 0.147064 0)
(-0.114492 0.139025 0)
(-0.134238 0.124565 0)
(-0.15285 0.103298 0)
(-0.16995 0.0745706 0)
(-0.18493 0.0379082 0)
(-0.196833 -0.00660783 0)
(-0.204228 -0.0578684 0)
(-0.205046 -0.113158 0)
(-0.196541 -0.167228 0)
(-0.175696 -0.211404 0)
(-0.140149 -0.232873 0)
(-0.0920704 -0.217234 0)
(-0.0390504 -0.155423 0)
(-0.00432233 -0.0560222 0)
(-0.0017963 0.0454263 0)
(-0.0135325 0.106103 0)
(-0.03164 0.142945 0)
(-0.051475 0.162 0)
(-0.071514 0.168873 0)
(-0.0907155 0.166961 0)
(-0.108864 0.158147 0)
(-0.12597 0.142814 0)
(-0.142119 0.120558 0)
(-0.15733 0.0905576 0)
(-0.171444 0.0520441 0)
(-0.183989 0.00462426 0)
(-0.193998 -0.0512856 0)
(-0.199678 -0.11389 0)
(-0.198174 -0.178826 0)
(-0.185387 -0.237655 0)
(-0.15671 -0.275406 0)
(-0.110465 -0.271513 0)
(-0.0513997 -0.205417 0)
(-0.00657055 -0.0791604 0)
(-0.00218773 0.0527772 0)
(-0.0148139 0.121233 0)
(-0.0328563 0.161476 0)
(-0.0513807 0.180972 0)
(-0.068754 0.187058 0)
(-0.084302 0.183901 0)
(-0.0980813 0.173935 0)
(-0.110508 0.157714 0)
(-0.12205 0.134881 0)
(-0.13319 0.104517 0)
(-0.14429 0.0656283 0)
(-0.155473 0.0173853 0)
(-0.166444 -0.0405393 0)
(-0.176036 -0.107539 0)
(-0.181877 -0.180813 0)
(-0.179454 -0.253505 0)
(-0.162523 -0.310283 0)
(-0.124629 -0.32551 0)
(-0.0651641 -0.263217 0)
(-0.00983155 -0.110027 0)
(-0.00302732 0.0610012 0)
(-0.017535 0.136619 0)
(-0.0354868 0.178971 0)
(-0.0518841 0.197314 0)
(-0.0650385 0.201318 0)
(-0.075043 0.19597 0)
(-0.0823503 0.184325 0)
(-0.087924 0.167109 0)
(-0.0926486 0.144057 0)
(-0.0974875 0.114217 0)
(-0.103317 0.0764585 0)
(-0.110864 0.0296198 0)
(-0.120594 -0.0272738 0)
(-0.13219 -0.0948242 0)
(-0.144338 -0.172168 0)
(-0.152974 -0.25527 0)
(-0.151607 -0.330866 0)
(-0.129105 -0.371485 0)
(-0.0781839 -0.324557 0)
(-0.0143255 -0.149705 0)
(-0.00484444 0.0722813 0)
(-0.0228466 0.153798 0)
(-0.0405002 0.195775 0)
(-0.0535524 0.210185 0)
(-0.0604091 0.210093 0)
(-0.0625867 0.20121 0)
(-0.0610754 0.187177 0)
(-0.0575453 0.168786 0)
(-0.0532893 0.145831 0)
(-0.0497195 0.117344 0)
(-0.0481517 0.0821283 0)
(-0.0498363 0.0388246 0)
(-0.0559528 -0.0139861 0)
(-0.0670858 -0.077872 0)
(-0.0833736 -0.153834 0)
(-0.101987 -0.241326 0)
(-0.118067 -0.331563 0)
(-0.117122 -0.40026 0)
(-0.0862235 -0.381845 0)
(-0.0200052 -0.198329 0)
(-0.00845864 0.0866447 0)
(-0.033154 0.171487 0)
(-0.0494662 0.209448 0)
(-0.0566559 0.216526 0)
(-0.0535925 0.210235 0)
(-0.0445323 0.196698 0)
(-0.0311289 0.179875 0)
(-0.015907 0.16042 0)
(-0.000468725 0.138077 0)
(0.0134389 0.111854 0)
(0.0242121 0.0805359 0)
(0.030236 0.0427113 0)
(0.0297671 -0.00322892 0)
(0.021448 -0.0593799 0)
(0.00360203 -0.12809 0)
(-0.0226254 -0.21207 0)
(-0.0558734 -0.308571 0)
(-0.0806094 -0.402084 0)
(-0.0823017 -0.423217 0)
(-0.0259669 -0.252648 0)
(-0.0149505 0.114222 0)
(-0.0478194 0.194793 0)
(-0.0577339 0.220725 0)
(-0.0531185 0.214127 0)
(-0.0341708 0.19848 0)
(-0.00926408 0.179107 0)
(0.0194955 0.159409 0)
(0.0488298 0.139425 0)
(0.0770964 0.118571 0)
(0.102457 0.09576 0)
(0.123259 0.0697687 0)
(0.137752 0.039247 0)
(0.143878 0.00261911 0)
(0.139748 -0.0422535 0)
(0.122408 -0.0983306 0)
(0.0912704 -0.170414 0)
(0.0430089 -0.261781 0)
(-0.00872594 -0.369891 0)
(-0.0547446 -0.435046 0)
(-0.0289082 -0.307008 0)
(-0.025678 0.142699 0)
(-0.0667797 0.208614 0)
(-0.0514321 0.213866 0)
(-0.0207862 0.190772 0)
(0.0248734 0.166281 0)
(0.0718641 0.143094 0)
(0.11915 0.12271 0)
(0.1636 0.104312 0)
(0.204272 0.0868474 0)
(0.239813 0.0691734 0)
(0.268964 0.0501415 0)
(0.290197 0.0286135 0)
(0.301514 0.00327269 0)
(0.30078 -0.0275824 0)
(0.284348 -0.0666875 0)
(0.250102 -0.118947 0)
(0.190254 -0.191571 0)
(0.113921 -0.294965 0)
(0.0151807 -0.393803 0)
(-0.017639 -0.337631 0)
(-0.0185379 0.215462 0)
(-0.019442 0.215799 0)
(0.0562439 0.180819 0)
(0.126778 0.138503 0)
(0.201517 0.108039 0)
(0.26739 0.0857328 0)
(0.326836 0.0688763 0)
(0.378736 0.0556041 0)
(0.423613 0.0443377 0)
(0.461262 0.0339748 0)
(0.491245 0.0235865 0)
(0.512653 0.0123994 0)
(0.524019 -0.000442986 0)
(0.523423 -0.0159129 0)
(0.50754 -0.0359717 0)
(0.473295 -0.0639823 0)
(0.410884 -0.108087 0)
(0.321329 -0.186488 0)
(0.171648 -0.296339 0)
(0.0426411 -0.334811 0)
(0.211555 0.129876 0)
(0.297999 0.101222 0)
(0.452014 0.0674878 0)
(0.54367 0.0440858 0)
(0.617477 0.0287162 0)
(0.672184 0.0194571 0)
(0.714951 0.0135273 0)
(0.74863 0.00961216 0)
(0.775321 0.0067859 0)
(0.796069 0.004524 0)
(0.811276 0.00247392 0)
(0.820808 0.000404137 0)
(0.824054 -0.00191041 0)
(0.819895 -0.00465192 0)
(0.806347 -0.00835655 0)
(0.780348 -0.0136065 0)
(0.733818 -0.0228949 0)
(0.658344 -0.0407849 0)
(0.498015 -0.0744414 0)
(0.28832 -0.136278 0)
)
;

boundaryField
{
    movingWall
    {
        type            fixedValue;
        value           uniform (1 0 0);
    }
    fixedWalls
    {
        type            noSlip;
    }
    frontAndBack
    {
        type            empty;
    }
}


// ************************************************************************* //
