/*--------------------------------*- C++ -*----------------------------------*\
| =========                 |                                                 |
| \\      /  F ield         | OpenFOAM: The Open Source CFD Toolbox           |
|  \\    /   O peration     | Version:  4.1                                   |
|   \\  /    A nd           | Web:      www.OpenFOAM.org                      |
|    \\/     M anipulation  |                                                 |
\*---------------------------------------------------------------------------*/
FoamFile
{
    version     2.0;
    format      ascii;
    class       volVectorField;
    location    "0.153";
    object      U;
}
// * * * * * * * * * * * * * * * * * * * * * * * * * * * * * * * * * * * * * //

dimensions      [0 1 -1 0 0 0 0];

internalField   nonuniform List<vector> 
1600
(
(1.46231e-05 -1.6188e-05 0)
(1.27083e-05 3.47093e-05 0)
(-8.53832e-05 0.000127562 0)
(-0.000301689 0.000234995 0)
(-0.000639563 0.000340787 0)
(-0.00108982 0.000435673 0)
(-0.00163625 0.000514466 0)
(-0.00225884 0.000574528 0)
(-0.00293589 0.000614844 0)
(-0.00364536 0.000635444 0)
(-0.00436576 0.000637032 0)
(-0.0050767 0.000620749 0)
(-0.00575926 0.000588016 0)
(-0.00639626 0.000540435 0)
(-0.00697233 0.000479723 0)
(-0.0074741 0.000407676 0)
(-0.0078902 0.000326149 0)
(-0.00821132 0.000237053 0)
(-0.00843031 0.000142345 0)
(-0.00854214 4.40408e-05 0)
(-0.00854403 -5.5785e-05 0)
(-0.00843548 -0.000154998 0)
(-0.00821831 -0.000251407 0)
(-0.00789675 -0.000342771 0)
(-0.00747747 -0.00042682 0)
(-0.00696959 -0.000501278 0)
(-0.00638467 -0.000563904 0)
(-0.00573669 -0.000612541 0)
(-0.00504193 -0.000645178 0)
(-0.00431877 -0.000660027 0)
(-0.00358745 -0.000655626 0)
(-0.00286967 -0.000630962 0)
(-0.0021881 -0.000585642 0)
(-0.00156555 -0.000520122 0)
(-0.00102401 -0.000436051 0)
(-0.000583144 -0.000336792 0)
(-0.000258097 -0.000228271 0)
(-5.63328e-05 -0.000120353 0)
(2.77021e-05 -2.94332e-05 0)
(1.82001e-05 1.83294e-05 0)
(-3.86985e-05 -1.68876e-05 0)
(-0.000223472 0.000212808 0)
(-0.000652304 0.000598828 0)
(-0.00137226 0.00103827 0)
(-0.0023912 0.00146941 0)
(-0.00368791 0.00185576 0)
(-0.00522363 0.00217642 0)
(-0.00694917 0.00242052 0)
(-0.00881009 0.00258365 0)
(-0.0107501 0.00266572 0)
(-0.0127136 0.00266943 0)
(-0.0146472 0.00259932 0)
(-0.0165009 0.00246116 0)
(-0.018229 0.0022615 0)
(-0.0197905 0.00200743 0)
(-0.0211496 0.00170637 0)
(-0.0222757 0.00136603 0)
(-0.0231438 0.000994335 0)
(-0.0237347 0.000599432 0)
(-0.0240351 0.000189696 0)
(-0.0240377 -0.000226264 0)
(-0.0237414 -0.000639599 0)
(-0.0231513 -0.00104124 0)
(-0.022279 -0.00142193 0)
(-0.0211427 -0.0017723 0)
(-0.019767 -0.002083 0)
(-0.0181829 -0.00234481 0)
(-0.0164278 -0.00254888 0)
(-0.0145447 -0.00268698 0)
(-0.0125823 -0.00275181 0)
(-0.0105934 -0.00273745 0)
(-0.00863459 -0.00263981 0)
(-0.00676404 -0.00245738 0)
(-0.00503986 -0.00219215 0)
(-0.00351717 -0.00185093 0)
(-0.00224434 -0.00144744 0)
(-0.00125777 -0.0010054 0)
(-0.000574763 -0.000563711 0)
(-0.000182453 -0.000185246 0)
(-2.85495e-05 2.86334e-05 0)
(-0.000134618 7.78831e-05 0)
(-0.000620167 0.000634632 0)
(-0.00147647 0.00143852 0)
(-0.00275532 0.00232351 0)
(-0.00446286 0.00318307 0)
(-0.00656763 0.00395071 0)
(-0.00901399 0.00458671 0)
(-0.0117311 0.00506943 0)
(-0.0146396 0.00538954 0)
(-0.017657 0.00554612 0)
(-0.0207008 0.00554394 0)
(-0.0236913 0.00539167 0)
(-0.0265536 0.00510061 0)
(-0.0292187 0.00468382 0)
(-0.0316245 0.00415558 0)
(-0.0337166 0.00353101 0)
(-0.0354487 0.00282587 0)
(-0.0367828 0.00205645 0)
(-0.0376898 0.00123952 0)
(-0.0381496 0.000392319 0)
(-0.0381512 -0.000467417 0)
(-0.0376932 -0.0013215 0)
(-0.0367837 -0.00215131 0)
(-0.0354407 -0.0029379 0)
(-0.0336917 -0.00366215 0)
(-0.0315744 -0.00430501 0)
(-0.0291359 -0.00484782 0)
(-0.0264324 -0.0052727 0)
(-0.0235291 -0.00556316 0)
(-0.0204986 -0.00570471 0)
(-0.01742 -0.00568569 0)
(-0.0143772 -0.00549836 0)
(-0.011456 -0.00514022 0)
(-0.0087417 -0.00461576 0)
(-0.00631447 -0.00393902 0)
(-0.00424421 -0.00313702 0)
(-0.00258348 -0.00225505 0)
(-0.0013586 -0.00136445 0)
(-0.000556629 -0.000574753 0)
(-0.000118323 -5.15268e-05 0)
(-0.000249196 0.000292147 0)
(-0.00108751 0.00135452 0)
(-0.00241908 0.00271133 0)
(-0.0042868 0.00415159 0)
(-0.00668694 0.00553119 0)
(-0.00957509 0.00675555 0)
(-0.0128798 0.00776578 0)
(-0.0165117 0.00852855 0)
(-0.0203716 0.00902874 0)
(-0.0243556 0.00926415 0)
(-0.0283596 0.00924171 0)
(-0.0322831 0.00897476 0)
(-0.0360307 0.0084811 0)
(-0.0395148 0.00778162 0)
(-0.0426561 0.0068994 0)
(-0.045385 0.00585908 0)
(-0.0476425 0.00468644 0)
(-0.0493799 0.00340827 0)
(-0.0505602 0.00205218 0)
(-0.0511575 0.000646589 0)
(-0.0511583 -0.000779291 0)
(-0.0505606 -0.00219551 0)
(-0.0493752 -0.00357149 0)
(-0.0476252 -0.00487614 0)
(-0.0453461 -0.00607819 0)
(-0.0425858 -0.00714657 0)
(-0.0394046 -0.00805092 0)
(-0.0358741 -0.00876235 0)
(-0.0320771 -0.00925428 0)
(-0.0281055 -0.00950355 0)
(-0.0240594 -0.00949179 0)
(-0.0200446 -0.00920705 0)
(-0.0161691 -0.0086459 0)
(-0.0125399 -0.00781605 0)
(-0.00925792 -0.00673992 0)
(-0.00641139 -0.00545929 0)
(-0.00406851 -0.00404187 0)
(-0.0022678 -0.00259026 0)
(-0.00100487 -0.00125435 0)
(-0.00022755 -0.000246969 0)
(-0.000369614 0.000635126 0)
(-0.00157768 0.00239748 0)
(-0.00340185 0.00445132 0)
(-0.0058691 0.0065568 0)
(-0.00895968 0.0085416 0)
(-0.0126126 0.0102878 0)
(-0.0167393 0.0117193 0)
(-0.0212332 0.0127919 0)
(-0.0259768 0.0134848 0)
(-0.0308483 0.0137949 0)
(-0.0357257 0.0137316 0)
(-0.040491 0.0133134 0)
(-0.0450326 0.0125657 0)
(-0.0492472 0.0115182 0)
(-0.053042 0.0102044 0)
(-0.0563352 0.00865987 0)
(-0.059057 0.00692222 0)
(-0.0611507 0.00503053 0)
(-0.0625724 0.00302518 0)
(-0.063292 0.000947775 0)
(-0.0632935 -0.00115896 0)
(-0.062575 -0.00325124 0)
(-0.0611489 -0.00528439 0)
(-0.0590424 -0.00721311 0)
(-0.0562974 -0.00899189 0)
(-0.0529702 -0.0105756 0)
(-0.0491313 -0.0119202 0)
(-0.0448648 -0.0129841 0)
(-0.0402673 -0.0137289 0)
(-0.0354468 -0.0141215 0)
(-0.0305204 -0.0141358 0)
(-0.0256116 -0.0137549 0)
(-0.0208475 -0.0129742 0)
(-0.0163536 -0.0118045 0)
(-0.0122495 -0.0102768 0)
(-0.0086413 -0.00844727 0)
(-0.00561438 -0.00640457 0)
(-0.00322341 -0.00427862 0)
(-0.00147902 -0.00225131 0)
(-0.000343339 -0.000567772 0)
(-0.000489695 0.00110732 0)
(-0.0020669 0.00376909 0)
(-0.00438389 0.00666918 0)
(-0.00744904 0.00955104 0)
(-0.0112228 0.012223 0)
(-0.0156246 0.0145495 0)
(-0.0205471 0.016441 0)
(-0.0258656 0.0178442 0)
(-0.0314456 0.0187342 0)
(-0.0371487 0.0191077 0)
(-0.0428373 0.0189774 0)
(-0.0483786 0.0183681 0)
(-0.0536472 0.0173136 0)
(-0.0585274 0.0158538 0)
(-0.062915 0.0140335 0)
(-0.0667184 0.0119008 0)
(-0.0698596 0.00950655 0)
(-0.072275 0.00690366 0)
(-0.0739155 0.00414688 0)
(-0.0747475 0.00129261 0)
(-0.0747531 -0.0016012 0)
(-0.0739298 -0.00447524 0)
(-0.0722918 -0.00726901 0)
(-0.0698691 -0.00992123 0)
(-0.0667085 -0.0123704 0)
(-0.0628726 -0.0145555 0)
(-0.0584401 -0.0164174 0)
(-0.0535049 -0.0178997 0)
(-0.0481751 -0.0189512 0)
(-0.0425714 -0.0195271 0)
(-0.0368254 -0.0195926 0)
(-0.031076 -0.0191247 0)
(-0.0254669 -0.0181168 0)
(-0.0201411 -0.0165821 0)
(-0.0152363 -0.0145588 0)
(-0.0108773 -0.012116 0)
(-0.00716876 -0.00936035 0)
(-0.00418489 -0.00644426 0)
(-0.00195536 -0.00357379 0)
(-0.000459493 -0.00101535 0)
(-0.000606823 0.00170551 0)
(-0.00254491 0.0054657 0)
(-0.00534674 0.00936356 0)
(-0.00900173 0.0131343 0)
(-0.0134487 0.0165742 0)
(-0.0185853 0.019536 0)
(-0.0242836 0.0219207 0)
(-0.0304001 0.0236691 0)
(-0.0367831 0.0247543 0)
(-0.0432783 0.0251743 0)
(-0.0497338 0.0249468 0)
(-0.0560037 0.0241039 0)
(-0.0619508 0.0226889 0)
(-0.067449 0.0207531 0)
(-0.072385 0.018354 0)
(-0.0766592 0.0155534 0)
(-0.0801871 0.0124164 0)
(-0.0828995 0.00901127 0)
(-0.0847435 0.00540822 0)
(-0.0856824 0.00167981 0)
(-0.0856966 -0.00209952 0)
(-0.0847833 -0.00585355 0)
(-0.0829574 -0.0095046 0)
(-0.0802511 -0.012974 0)
(-0.0767144 -0.0161827 0)
(-0.072415 -0.0190526 0)
(-0.0674375 -0.0215075 0)
(-0.0618838 -0.0234752 0)
(-0.055871 -0.0248896 0)
(-0.0495308 -0.0256933 0)
(-0.0430069 -0.0258406 0)
(-0.0364526 -0.0253016 0)
(-0.0300267 -0.0240658 0)
(-0.0238897 -0.0221472 0)
(-0.0181976 -0.0195895 0)
(-0.0130955 -0.0164718 0)
(-0.00870917 -0.0129157 0)
(-0.00513515 -0.00909075 0)
(-0.00242422 -0.0052212 0)
(-0.000573519 -0.00158754 0)
(-0.000720341 0.00242527 0)
(-0.00300899 0.00747986 0)
(-0.00628506 0.0125275 0)
(-0.0105196 0.0173005 0)
(-0.0156292 0.0215891 0)
(-0.0214882 0.0252394 0)
(-0.027947 0.0281474 0)
(-0.0348421 0.0302515 0)
(-0.0420041 0.0315254 0)
(-0.0492631 0.0319711 0)
(-0.0564535 0.0316126 0)
(-0.0634176 0.0304913 0)
(-0.0700078 0.0286614 0)
(-0.0760892 0.0261869 0)
(-0.0815409 0.023139 0)
(-0.086257 0.0195942 0)
(-0.0901479 0.0156334 0)
(-0.0931401 0.0113408 0)
(-0.0951776 0.00680312 0)
(-0.0962213 0.0021101 0)
(-0.09625 -0.00264636 0)
(-0.0952605 -0.00737219 0)
(-0.0932677 -0.0119715 0)
(-0.0903052 -0.016347 0)
(-0.086425 -0.0204012 0)
(-0.081698 -0.0240372 0)
(-0.0762136 -0.0271606 0)
(-0.0700793 -0.0296819 0)
(-0.06342 -0.0315184 0)
(-0.0563765 -0.0325981 0)
(-0.0491036 -0.0328632 0)
(-0.0417676 -0.0322744 0)
(-0.0345426 -0.0308155 0)
(-0.0276062 -0.0284988 0)
(-0.0211341 -0.0253708 0)
(-0.015293 -0.0215179 0)
(-0.0102318 -0.0170723 0)
(-0.00607111 -0.0122171 0)
(-0.002884 -0.0071899 0)
(-0.00068502 -0.00228123 0)
(-0.000830632 0.0032624 0)
(-0.00346048 0.00980367 0)
(-0.00720084 0.0161524 0)
(-0.0120053 0.0220416 0)
(-0.017768 0.0272597 0)
(-0.0243392 0.0316509 0)
(-0.0315464 0.0351103 0)
(-0.0392054 0.0375777 0)
(-0.0471286 0.0390309 0)
(-0.0551303 0.0394782 0)
(-0.0630319 0.0389526 0)
(-0.0706641 0.0375064 0)
(-0.0778705 0.0352066 0)
(-0.0845085 0.0321313 0)
(-0.0904509 0.0283665 0)
(-0.0955872 0.0240047 0)
(-0.0998234 0.0191432 0)
(-0.103083 0.0138829 0)
(-0.105308 0.00832812 0)
(-0.106457 0.00258605 0)
(-0.106507 -0.00323324 0)
(-0.105455 -0.00901714 0)
(-0.103315 -0.0146508 0)
(-0.100121 -0.0200176 0)
(-0.0959251 -0.0250005 0)
(-0.0908011 -0.0294828 0)
(-0.0848411 -0.0333508 0)
(-0.078157 -0.0364954 0)
(-0.0708796 -0.0388163 0)
(-0.0631577 -0.0402247 0)
(-0.0551562 -0.0406483 0)
(-0.0470539 -0.040036 0)
(-0.0390399 -0.0383632 0)
(-0.0313099 -0.0356377 0)
(-0.02406 -0.0319056 0)
(-0.0174801 -0.0272571 0)
(-0.0117441 -0.0218317 0)
(-0.0069978 -0.0158223 0)
(-0.00333753 -0.0094767 0)
(-0.000794744 -0.00309388 0)
(-0.000938589 0.00421358 0)
(-0.00390279 0.0124305 0)
(-0.00809993 0.020231 0)
(-0.0134669 0.0273503 0)
(-0.0198751 0.0335787 0)
(-0.0271505 0.0387623 0)
(-0.0350967 0.0427997 0)
(-0.0435081 0.045636 0)
(-0.0521782 0.0472563 0)
(-0.0609058 0.0476785 0)
(-0.0694989 0.0469475 0)
(-0.077778 0.0451286 0)
(-0.0855783 0.0423036 0)
(-0.0927508 0.0385659 0)
(-0.0991634 0.0340181 0)
(-0.104702 0.0287695 0)
(-0.109269 0.0229343 0)
(-0.112788 0.0166311 0)
(-0.115196 0.00998185 0)
(-0.116452 0.00311179 0)
(-0.116532 -0.0038506 0)
(-0.115432 -0.0107738 0)
(-0.113163 -0.0175237 0)
(-0.10976 -0.0239638 0)
(-0.105275 -0.0299567 0)
(-0.0997826 -0.035365 0)
(-0.0933754 -0.040054 0)
(-0.0861687 -0.0438943 0)
(-0.0782978 -0.0467651 0)
(-0.0699182 -0.0485591 0)
(-0.0612041 -0.0491867 0)
(-0.0523462 -0.048582 0)
(-0.0435491 -0.0467089 0)
(-0.0350268 -0.0435672 0)
(-0.0269971 -0.039199 0)
(-0.0196745 -0.0336946 0)
(-0.0132594 -0.0271976 0)
(-0.00792461 -0.0199076 0)
(-0.00379004 -0.0120808 0)
(-0.00090403 -0.00402432 0)
(-0.00104532 0.00527673 0)
(-0.00434019 0.0153561 0)
(-0.00898993 0.0247577 0)
(-0.0149149 0.0332208 0)
(-0.0219638 0.0405398 0)
(-0.0299375 0.0465666 0)
(-0.0386152 0.051207 0)
(-0.0477689 0.0544154 0)
(-0.0571733 0.0561882 0)
(-0.066611 0.0565564 0)
(-0.0758776 0.0555795 0)
(-0.0847836 0.0533388 0)
(-0.0931567 0.0499327 0)
(-0.100843 0.045472 0)
(-0.107706 0.040077 0)
(-0.11363 0.0338745 0)
(-0.118516 0.0269968 0)
(-0.122284 0.0195801 0)
(-0.124873 0.0117643 0)
(-0.126239 0.00369277 0)
(-0.126358 -0.00448763 0)
(-0.125223 -0.0126266 0)
(-0.122846 -0.0205704 0)
(-0.119258 -0.0281627 0)
(-0.114512 -0.0352449 0)
(-0.108679 -0.0416583 0)
(-0.101853 -0.0472461 0)
(-0.0941511 -0.0518566 0)
(-0.085711 -0.0553469 0)
(-0.0766938 -0.057588 0)
(-0.067282 -0.0584702 0)
(-0.0576779 -0.0579095 0)
(-0.0481014 -0.0558544 0)
(-0.0387853 -0.0522928 0)
(-0.0299706 -0.0472587 0)
(-0.0218974 -0.0408389 0)
(-0.0147945 -0.0331775 0)
(-0.00886303 -0.0244784 0)
(-0.00424782 -0.015005 0)
(-0.00101449 -0.00507306 0)
(-0.001152 0.00645099 0)
(-0.00477723 0.0185784 0)
(-0.00987895 0.0297301 0)
(-0.0163607 0.0396499 0)
(-0.0240481 0.0481388 0)
(-0.032716 0.0550577 0)
(-0.0421184 0.0603238 0)
(-0.0520048 0.0639049 0)
(-0.0621302 0.0658127 0)
(-0.0722616 0.0660952 0)
(-0.082182 0.0648298 0)
(-0.0916932 0.0621167 0)
(-0.100616 0.0580734 0)
(-0.108793 0.0528299 0)
(-0.116086 0.0465254 0)
(-0.122377 0.0393054 0)
(-0.127566 0.0313204 0)
(-0.131575 0.0227247 0)
(-0.134341 0.013676 0)
(-0.135821 0.0043354 0)
(-0.135988 -0.00513215 0)
(-0.134834 -0.0145578 0)
(-0.132369 -0.0237689 0)
(-0.128623 -0.0325886 0)
(-0.123645 -0.0408375 0)
(-0.117503 -0.0483347 0)
(-0.110291 -0.0549001 0)
(-0.102124 -0.060358 0)
(-0.0931417 -0.0645411 0)
(-0.0835097 -0.067296 0)
(-0.0734171 -0.0684894 0)
(-0.0630774 -0.0680151 0)
(-0.0527253 -0.065802 0)
(-0.0426133 -0.0618214 0)
(-0.0330058 -0.0560951 0)
(-0.0241708 -0.0487019 0)
(-0.0163668 -0.0397831 0)
(-0.00982524 -0.0295445 0)
(-0.00471754 -0.0182558 0)
(-0.00112784 -0.00624248 0)
(-0.00125979 0.00773681 0)
(-0.00521837 0.0220981 0)
(-0.010775 0.0351486 0)
(-0.0178156 0.0466368 0)
(-0.0261415 0.056373 0)
(-0.0355007 0.0642303 0)
(-0.0456212 0.0701415 0)
(-0.0562292 0.0740922 0)
(-0.0670601 0.0761138 0)
(-0.0778652 0.0762755 0)
(-0.088416 0.0746765 0)
(-0.0985061 0.0714389 0)
(-0.107952 0.0667019 0)
(-0.116592 0.0606167 0)
(-0.124288 0.0533427 0)
(-0.130923 0.0450452 0)
(-0.136398 0.0358931 0)
(-0.140635 0.0260587 0)
(-0.143573 0.0157171 0)
(-0.145167 0.00504668 0)
(-0.145392 -0.00577044 0)
(-0.144236 -0.0165477 0)
(-0.141708 -0.0270936 0)
(-0.137833 -0.0372119 0)
(-0.132656 -0.0467021 0)
(-0.126242 -0.0553605 0)
(-0.118681 -0.062983 0)
(-0.110086 -0.0693681 0)
(-0.100596 -0.0743217 0)
(-0.0903774 -0.0776628 0)
(-0.0796264 -0.0792307 0)
(-0.0685656 -0.0788925 0)
(-0.0574445 -0.0765525 0)
(-0.0465352 -0.0721604 0)
(-0.0361268 -0.0657204 0)
(-0.026516 -0.0572989 0)
(-0.0179936 -0.0470304 0)
(-0.0108234 -0.0351203 0)
(-0.00520583 -0.0218436 0)
(-0.00124576 -0.00753682 0)
(-0.0013698 0.0091358 0)
(-0.00566791 0.0259184 0)
(-0.0116858 0.041016 0)
(-0.0192901 0.0541829 0)
(-0.0282564 0.0652409 0)
(-0.0383043 0.074079 0)
(-0.049135 0.08065 0)
(-0.0604507 0.0849621 0)
(-0.0719671 0.0870716 0)
(-0.0834204 0.0870733 0)
(-0.0945714 0.0850921 0)
(-0.105207 0.0812759 0)
(-0.11514 0.0757882 0)
(-0.124208 0.0688036 0)
(-0.132275 0.0605032 0)
(-0.139224 0.0510725 0)
(-0.14496 0.0406994 0)
(-0.149408 0.0295735 0)
(-0.152508 0.0178868 0)
(-0.154217 0.00583381 0)
(-0.154508 -0.00638715 0)
(-0.153369 -0.0185729 0)
(-0.150804 -0.0305146 0)
(-0.146834 -0.0419971 0)
(-0.141498 -0.0527991 0)
(-0.134857 -0.0626944 0)
(-0.126993 -0.0714536 0)
(-0.118015 -0.0788481 0)
(-0.108059 -0.0846543 0)
(-0.0972926 -0.0886604 0)
(-0.0859136 -0.0906738 0)
(-0.0741535 -0.0905302 0)
(-0.0622754 -0.0881033 0)
(-0.0505707 -0.0833154 0)
(-0.0393539 -0.0761472 0)
(-0.0289523 -0.0666474 0)
(-0.0196909 -0.0549393 0)
(-0.0118689 -0.0412245 0)
(-0.0057191 -0.0257826 0)
(-0.00136992 -0.00896207 0)
(-0.00148312 0.0106507 0)
(-0.00612999 0.0300448 0)
(-0.0126185 0.047338 0)
(-0.0207939 0.0622917 0)
(-0.0304035 0.0747416 0)
(-0.041137 0.0845974 0)
(-0.0526674 0.0918364 0)
(-0.0646722 0.0964953 0)
(-0.0768476 0.0986603 0)
(-0.0889153 0.0984571 0)
(-0.100627 0.0960413 0)
(-0.111763 0.0915898 0)
(-0.122137 0.085294 0)
(-0.131588 0.0773537 0)
(-0.139981 0.0679735 0)
(-0.147206 0.0573594 0)
(-0.153172 0.0457182 0)
(-0.157807 0.0332565 0)
(-0.161055 0.0201819 0)
(-0.162875 0.00670366 0)
(-0.16324 -0.00696535 0)
(-0.162136 -0.020607 0)
(-0.159564 -0.0339966 0)
(-0.155538 -0.0469014 0)
(-0.150091 -0.0590802 0)
(-0.143275 -0.0702844 0)
(-0.135166 -0.0802591 0)
(-0.125863 -0.0887469 0)
(-0.115497 -0.0954924 0)
(-0.104232 -0.100249 0)
(-0.0922668 -0.102788 0)
(-0.0798395 -0.102908 0)
(-0.0672246 -0.100446 0)
(-0.0547324 -0.0952885 0)
(-0.0427031 -0.0873874 0)
(-0.031496 -0.0767664 0)
(-0.0214731 -0.0635324 0)
(-0.0129725 -0.0478799 0)
(-0.0062634 -0.0300906 0)
(-0.00150188 -0.0105259 0)
(-0.00160082 0.0122853 0)
(-0.0066087 0.0344847 0)
(-0.0135803 0.0541221 0)
(-0.022336 0.0709675 0)
(-0.0325923 0.0848741 0)
(-0.0440065 0.0957767 0)
(-0.0562216 0.103684 0)
(-0.0688902 0.108666 0)
(-0.0816889 0.110846 0)
(-0.0943262 0.110386 0)
(-0.106546 0.107478 0)
(-0.118126 0.102332 0)
(-0.128881 0.0951695 0)
(-0.138654 0.0862194 0)
(-0.147317 0.0757101 0)
(-0.154766 0.0638691 0)
(-0.160918 0.0509214 0)
(-0.165707 0.0370899 0)
(-0.169082 0.0225961 0)
(-0.171006 0.00766215 0)
(-0.171451 -0.00748657 0)
(-0.170402 -0.0226194 0)
(-0.167855 -0.0374976 0)
(-0.163819 -0.0518729 0)
(-0.158317 -0.0654858 0)
(-0.151391 -0.0780658 0)
(-0.143106 -0.0893325 0)
(-0.13355 -0.0989985 0)
(-0.122846 -0.106774 0)
(-0.111148 -0.112375 0)
(-0.0986554 -0.11553 0)
(-0.0856069 -0.115995 0)
(-0.0722873 -0.113562 0)
(-0.0590246 -0.108076 0)
(-0.0461846 -0.0994491 0)
(-0.0341601 -0.0876742 0)
(-0.0233527 -0.0728345 0)
(-0.014144 -0.055112 0)
(-0.00684444 -0.0347884 0)
(-0.00164317 -0.0122377 0)
(-0.00172404 0.0140446 0)
(-0.00710827 0.0392478 0)
(-0.0145781 0.061378 0)
(-0.0239251 0.0802156 0)
(-0.034831 0.0956358 0)
(-0.0469177 0.107605 0)
(-0.0597964 0.116168 0)
(-0.0730941 0.121439 0)
(-0.0864685 0.123583 0)
(-0.0996163 0.122806 0)
(-0.112276 0.119342 0)
(-0.124226 0.113438 0)
(-0.135284 0.105351 0)
(-0.145302 0.0953392 0)
(-0.154162 0.083657 0)
(-0.161769 0.0705536 0)
(-0.168051 0.0562718 0)
(-0.17295 0.0410489 0)
(-0.176423 0.0251186 0)
(-0.178435 0.00871357 0)
(-0.178963 -0.00793115 0)
(-0.177989 -0.024575 0)
(-0.175504 -0.0409684 0)
(-0.171509 -0.0568498 0)
(-0.166019 -0.0719434 0)
(-0.159061 -0.0859585 0)
(-0.150685 -0.0985893 0)
(-0.140967 -0.109518 0)
(-0.130014 -0.118418 0)
(-0.11797 -0.124964 0)
(-0.105026 -0.128837 0)
(-0.0914209 -0.129742 0)
(-0.0774449 -0.12742 0)
(-0.0634415 -0.121663 0)
(-0.0498016 -0.112335 0)
(-0.0369529 -0.0993867 0)
(-0.0253399 -0.0828704 0)
(-0.0153921 -0.0629488 0)
(-0.00746759 -0.0398996 0)
(-0.00179522 -0.0141082 0)
(-0.00185402 0.0159347 0)
(-0.0076333 0.0443457 0)
(-0.0156194 0.0691167 0)
(-0.0255699 0.0900411 0)
(-0.0371267 0.107022 0)
(-0.0498727 0.120063 0)
(-0.0633855 0.129257 0)
(-0.0772655 0.134768 0)
(-0.0911527 0.136813 0)
(-0.104734 0.135649 0)
(-0.117745 0.131556 0)
(-0.12997 0.124827 0)
(-0.141233 0.115757 0)
(-0.151399 0.104635 0)
(-0.160363 0.0917431 0)
(-0.168044 0.0773519 0)
(-0.174383 0.0617209 0)
(-0.179335 0.0451001 0)
(-0.182865 0.027733 0)
(-0.184945 0.00985965 0)
(-0.185554 -0.00827861 0)
(-0.184674 -0.0264349 0)
(-0.182291 -0.0443521 0)
(-0.178397 -0.0617588 0)
(-0.172995 -0.0783659 0)
(-0.166096 -0.0938644 0)
(-0.157733 -0.107925 0)
(-0.147963 -0.120198 0)
(-0.136874 -0.13032 0)
(-0.124594 -0.137919 0)
(-0.111301 -0.142624 0)
(-0.0972255 -0.144082 0)
(-0.0826619 -0.141971 0)
(-0.067965 -0.136022 0)
(-0.0535494 -0.126037 0)
(-0.0398783 -0.111915 0)
(-0.0274422 -0.0936636 0)
(-0.0167244 -0.0714195 0)
(-0.00813791 -0.04545 0)
(-0.00195944 -0.0161496 0)
(-0.0019922 0.0179629 0)
(-0.00818903 0.0497924 0)
(-0.0167124 0.0773508 0)
(-0.0272793 0.100449 0)
(-0.0394855 0.119024 0)
(-0.0528709 0.133128 0)
(-0.0669768 0.142909 0)
(-0.081377 0.148593 0)
(-0.095695 0.150459 0)
(-0.109611 0.148824 0)
(-0.122862 0.144023 0)
(-0.135241 0.136398 0)
(-0.146586 0.126285 0)
(-0.156778 0.114009 0)
(-0.16573 0.0998791 0)
(-0.173381 0.0841868 0)
(-0.179687 0.0672069 0)
(-0.184619 0.0492 0)
(-0.188153 0.0304159 0)
(-0.19027 0.0110986 0)
(-0.190954 -0.00850833 0)
(-0.190186 -0.0281558 0)
(-0.187946 -0.0475835 0)
(-0.18422 -0.0665145 0)
(-0.178993 -0.0846499 0)
(-0.17226 -0.101666 0)
(-0.164034 -0.11721 0)
(-0.154345 -0.130905 0)
(-0.143259 -0.142346 0)
(-0.130881 -0.151113 0)
(-0.117368 -0.156778 0)
(-0.102939 -0.15892 0)
(-0.0878831 -0.157144 0)
(-0.0725625 -0.151107 0)
(-0.0574131 -0.140536 0)
(-0.0429337 -0.12526 0)
(-0.0296641 -0.105234 0)
(-0.0181473 -0.0805532 0)
(-0.00886016 -0.0514671 0)
(-0.00213722 -0.0183756 0)
(-0.00214029 0.0201381 0)
(-0.00878169 0.0556041 0)
(-0.0178668 0.0860941 0)
(-0.0290631 0.111441 0)
(-0.0419134 0.131627 0)
(-0.0559088 0.146762 0)
(-0.0705521 0.157065 0)
(-0.0853906 0.162834 0)
(-0.100034 0.164424 0)
(-0.114158 0.16222 0)
(-0.12751 0.156621 0)
(-0.139893 0.148023 0)
(-0.151168 0.13681 0)
(-0.161237 0.123341 0)
(-0.170036 0.107955 0)
(-0.177527 0.090963 0)
(-0.183689 0.072653 0)
(-0.18851 0.0532928 0)
(-0.191981 0.0331352 0)
(-0.194095 0.0124237 0)
(-0.19484 -0.00860046 0)
(-0.194199 -0.0296911 0)
(-0.192148 -0.0505899 0)
(-0.18866 -0.0710191 0)
(-0.183708 -0.0906751 0)
(-0.177265 -0.109223 0)
(-0.169318 -0.126292 0)
(-0.159871 -0.141476 0)
(-0.148957 -0.154332 0)
(-0.136651 -0.164387 0)
(-0.123083 -0.171151 0)
(-0.10845 -0.174128 0)
(-0.093029 -0.172838 0)
(-0.0771835 -0.166846 0)
(-0.0613658 -0.155791 0)
(-0.0461094 -0.139414 0)
(-0.0320062 -0.117595 0)
(-0.0196657 -0.0903774 0)
(-0.00963881 -0.0579796 0)
(-0.0023299 -0.0208011 0)
(-0.00230038 0.0224713 0)
(-0.00941883 0.0618001 0)
(-0.0190937 0.0953618 0)
(-0.0309323 0.123019 0)
(-0.044415 0.14481 0)
(-0.0589786 0.160918 0)
(-0.0740847 0.171649 0)
(-0.0892548 0.17739 0)
(-0.104088 0.178583 0)
(-0.118264 0.175695 0)
(-0.131541 0.169197 0)
(-0.143746 0.159547 0)
(-0.154765 0.147176 0)
(-0.164529 0.132485 0)
(-0.173005 0.115838 0)
(-0.180183 0.0975649 0)
(-0.186066 0.0779649 0)
(-0.190666 0.0573092 0)
(-0.193993 0.0358489 0)
(-0.196051 0.0138223 0)
(-0.196836 -0.00853707 0)
(-0.196332 -0.0309916 0)
(-0.194514 -0.0532908 0)
(-0.191344 -0.0751623 0)
(-0.186776 -0.0963033 0)
(-0.180763 -0.116373 0)
(-0.173261 -0.134988 0)
(-0.164242 -0.151716 0)
(-0.1537 -0.166075 0)
(-0.141674 -0.177543 0)
(-0.128255 -0.185557 0)
(-0.113609 -0.18954 0)
(-0.0979907 -0.188915 0)
(-0.0817552 -0.183139 0)
(-0.0653655 -0.171738 0)
(-0.0493867 -0.154348 0)
(-0.0344648 -0.130751 0)
(-0.0212829 -0.100916 0)
(-0.010478 -0.0650167 0)
(-0.00253883 -0.0234423 0)
(-0.00247507 0.0249758 0)
(-0.0101097 0.0684029 0)
(-0.0204065 0.10517 0)
(-0.0328989 0.135179 0)
(-0.0469938 0.15854 0)
(-0.0620669 0.175531 0)
(-0.0775366 0.186563 0)
(-0.092901 0.192131 0)
(-0.107753 0.192781 0)
(-0.121784 0.189075 0)
(-0.134773 0.181566 0)
(-0.146578 0.170779 0)
(-0.157118 0.157199 0)
(-0.166363 0.141264 0)
(-0.174314 0.123367 0)
(-0.180996 0.103854 0)
(-0.186444 0.0830295 0)
(-0.190693 0.0611645 0)
(-0.193775 0.0385036 0)
(-0.195711 0.0152742 0)
(-0.196505 -0.00830358 0)
(-0.196147 -0.0320071 0)
(-0.194606 -0.0556003 0)
(-0.191834 -0.0788227 0)
(-0.18777 -0.10138 0)
(-0.182342 -0.122932 0)
(-0.175473 -0.143087 0)
(-0.167096 -0.161393 0)
(-0.157164 -0.177335 0)
(-0.145665 -0.190334 0)
(-0.132644 -0.199761 0)
(-0.118224 -0.204942 0)
(-0.102623 -0.205193 0)
(-0.0861773 -0.199842 0)
(-0.0693506 -0.188282 0)
(-0.0527346 -0.170012 0)
(-0.0370298 -0.144692 0)
(-0.0229998 -0.112187 0)
(-0.0113813 -0.0726071 0)
(-0.00276528 -0.0263166 0)
(-0.00266754 0.0276677 0)
(-0.0108656 0.0754388 0)
(-0.021821 0.115534 0)
(-0.0349758 0.147911 0)
(-0.0496501 0.172771 0)
(-0.0651516 0.190512 0)
(-0.0808544 0.201676 0)
(-0.0962367 0.206889 0)
(-0.110894 0.206822 0)
(-0.124538 0.202145 0)
(-0.136979 0.193502 0)
(-0.148117 0.181493 0)
(-0.157916 0.166657 0)
(-0.166389 0.149473 0)
(-0.173582 0.130358 0)
(-0.179558 0.109669 0)
(-0.184387 0.0877138 0)
(-0.188135 0.0647577 0)
(-0.190857 0.041033 0)
(-0.192591 0.0167503 0)
(-0.193354 -0.00789055 0)
(-0.193141 -0.0326883 0)
(-0.191919 -0.0574282 0)
(-0.189631 -0.08187 0)
(-0.186198 -0.105735 0)
(-0.181522 -0.128692 0)
(-0.175494 -0.15035 0)
(-0.168003 -0.170242 0)
(-0.158951 -0.187825 0)
(-0.148271 -0.20247 0)
(-0.135948 -0.213474 0)
(-0.122047 -0.220066 0)
(-0.106735 -0.221435 0)
(-0.0903139 -0.216766 0)
(-0.0732346 -0.205285 0)
(-0.0561064 -0.186326 0)
(-0.0396825 -0.159388 0)
(-0.0248137 -0.1242 0)
(-0.0123515 -0.0807779 0)
(-0.00301043 -0.0294429 0)
(-0.00288164 0.0305672 0)
(-0.0117001 0.0829388 0)
(-0.0233547 0.126471 0)
(-0.0371749 0.161195 0)
(-0.0523781 0.187436 0)
(-0.0681965 0.205744 0)
(-0.0839607 0.216821 0)
(-0.0991364 0.221457 0)
(-0.113333 0.220465 0)
(-0.126293 0.214642 0)
(-0.137877 0.204735 0)
(-0.148034 0.191419 0)
(-0.156785 0.175293 0)
(-0.164196 0.156872 0)
(-0.170364 0.136593 0)
(-0.175395 0.114823 0)
(-0.1794 0.0918643 0)
(-0.182477 0.0679713 0)
(-0.184706 0.0433577 0)
(-0.186147 0.018211 0)
(-0.186829 -0.00729552 0)
(-0.186753 -0.0329891 0)
(-0.185887 -0.0586842 0)
(-0.184166 -0.0841681 0)
(-0.181495 -0.109186 0)
(-0.177751 -0.133427 0)
(-0.172789 -0.156508 0)
(-0.166453 -0.17796 0)
(-0.158588 -0.197216 0)
(-0.149064 -0.213604 0)
(-0.137792 -0.22635 0)
(-0.124764 -0.234578 0)
(-0.110079 -0.237342 0)
(-0.0939831 -0.233657 0)
(-0.0768968 -0.222558 0)
(-0.0594333 -0.203168 0)
(-0.0423923 -0.174783 0)
(-0.0267167 -0.136951 0)
(-0.0133897 -0.0895531 0)
(-0.00327518 -0.0328412 0)
(-0.00312189 0.0336989 0)
(-0.0126286 0.0909386 0)
(-0.0250265 0.137994 0)
(-0.0395048 0.174999 0)
(-0.0551599 0.202442 0)
(-0.0711423 0.221068 0)
(-0.0867433 0.231784 0)
(-0.101427 0.235571 0)
(-0.114833 0.233414 0)
(-0.126753 0.226252 0)
(-0.137109 0.214943 0)
(-0.14592 0.200244 0)
(-0.153271 0.182809 0)
(-0.159294 0.163187 0)
(-0.164138 0.14183 0)
(-0.167964 0.119106 0)
(-0.170919 0.0953082 0)
(-0.173139 0.0706713 0)
(-0.17473 0.0453845 0)
(-0.175774 0.0196056 0)
(-0.176314 -0.00652512 0)
(-0.17636 -0.0328703 0)
(-0.17588 -0.0592809 0)
(-0.174806 -0.0855801 0)
(-0.173028 -0.111547 0)
(-0.170399 -0.1369 0)
(-0.166741 -0.161275 0)
(-0.161849 -0.184213 0)
(-0.155512 -0.205135 0)
(-0.147522 -0.223337 0)
(-0.137711 -0.237976 0)
(-0.125978 -0.248073 0)
(-0.112333 -0.252537 0)
(-0.0969426 -0.250192 0)
(-0.0801712 -0.239845 0)
(-0.0626157 -0.220365 0)
(-0.0451107 -0.190785 0)
(-0.0286928 -0.150417 0)
(-0.0144946 -0.0989513 0)
(-0.00355984 -0.0365323 0)
(-0.00339339 0.0370933 0)
(-0.0136682 0.0994786 0)
(-0.0268537 0.15011 0)
(-0.0419645 0.189267 0)
(-0.0579559 0.217656 0)
(-0.0738931 0.236275 0)
(-0.0890369 0.246285 0)
(-0.102869 0.2489 0)
(-0.115077 0.245305 0)
(-0.125529 0.236596 0)
(-0.134227 0.223749 0)
(-0.141272 0.207605 0)
(-0.146831 0.188867 0)
(-0.151103 0.168112 0)
(-0.154303 0.1458 0)
(-0.156641 0.122289 0)
(-0.158308 0.0978558 0)
(-0.159473 0.0727096 0)
(-0.160273 0.0470076 0)
(-0.160807 0.0208717 0)
(-0.161137 -0.00559699 0)
(-0.16128 -0.0323028 0)
(-0.16121 -0.0591398 0)
(-0.160855 -0.0859752 0)
(-0.160094 -0.112631 0)
(-0.158762 -0.138866 0)
(-0.156648 -0.164349 0)
(-0.153505 -0.188642 0)
(-0.149057 -0.211174 0)
(-0.143021 -0.231217 0)
(-0.135135 -0.247874 0)
(-0.12519 -0.260069 0)
(-0.113082 -0.266557 0)
(-0.0988691 -0.265957 0)
(-0.0828281 -0.256809 0)
(-0.0655093 -0.237673 0)
(-0.0477621 -0.207255 0)
(-0.0307125 -0.164548 0)
(-0.0156596 -0.108983 0)
(-0.00386362 -0.0405384 0)
(-0.00370132 0.0407875 0)
(-0.0148354 0.108602 0)
(-0.0288468 0.162814 0)
(-0.0445336 0.203908 0)
(-0.0606887 0.232889 0)
(-0.0762933 0.251082 0)
(-0.0905958 0.259966 0)
(-0.103121 0.261034 0)
(-0.11364 0.255699 0)
(-0.122117 0.245229 0)
(-0.128659 0.230721 0)
(-0.13347 0.213095 0)
(-0.136805 0.193096 0)
(-0.138942 0.171316 0)
(-0.140158 0.148212 0)
(-0.140717 0.124126 0)
(-0.140853 0.0993058 0)
(-0.140765 0.0739278 0)
(-0.140617 0.048111 0)
(-0.140527 0.0219357 0)
(-0.140572 -0.00454136 0)
(-0.14078 -0.0312712 0)
(-0.141131 -0.0581971 0)
(-0.141553 -0.0852369 0)
(-0.141922 -0.112265 0)
(-0.142056 -0.139088 0)
(-0.141722 -0.165426 0)
(-0.14063 -0.190877 0)
(-0.138448 -0.214893 0)
(-0.134815 -0.236746 0)
(-0.129367 -0.255501 0)
(-0.121772 -0.269998 0)
(-0.111788 -0.278844 0)
(-0.099331 -0.280433 0)
(-0.0845491 -0.273009 0)
(-0.0679051 -0.254764 0)
(-0.0502298 -0.223988 0)
(-0.0327246 -0.179258 0)
(-0.0168696 -0.119643 0)
(-0.00418359 -0.0448815 0)
(-0.00405004 0.0448259 0)
(-0.0161421 0.118354 0)
(-0.031 0.176076 0)
(-0.0471541 0.218781 0)
(-0.0632156 0.247876 0)
(-0.0780931 0.265113 0)
(-0.0910537 0.272367 0)
(-0.101706 0.271463 0)
(-0.109938 0.264066 0)
(-0.11585 0.251629 0)
(-0.119679 0.235366 0)
(-0.121743 0.216262 0)
(-0.122397 0.195091 0)
(-0.122001 0.172447 0)
(-0.120895 0.148768 0)
(-0.119392 0.124366 0)
(-0.117761 0.0994531 0)
(-0.116232 0.0741636 0)
(-0.114988 0.0485727 0)
(-0.114164 0.0227146 0)
(-0.113849 -0.00340193 0)
(-0.114082 -0.0297783 0)
(-0.114852 -0.0564106 0)
(-0.116093 -0.0832728 0)
(-0.117681 -0.110298 0)
(-0.119428 -0.137354 0)
(-0.121084 -0.16422 0)
(-0.122331 -0.190551 0)
(-0.122787 -0.215844 0)
(-0.122017 -0.239395 0)
(-0.119554 -0.260259 0)
(-0.114935 -0.277214 0)
(-0.107755 -0.28873 0)
(-0.0977492 -0.292982 0)
(-0.0848906 -0.287883 0)
(-0.0694979 -0.271193 0)
(-0.0523329 -0.240689 0)
(-0.0346422 -0.194404 0)
(-0.018094 -0.130909 0)
(-0.00451292 -0.0495833 0)
(-0.00444095 0.049261 0)
(-0.0175876 0.128769 0)
(-0.0332726 0.189826 0)
(-0.0496992 0.233663 0)
(-0.0652848 0.262239 0)
(-0.078894 0.277864 0)
(-0.0898629 0.282901 0)
(-0.0979385 0.279559 0)
(-0.103179 0.269783 0)
(-0.105855 0.255204 0)
(-0.106357 0.237141 0)
(-0.105135 0.216625 0)
(-0.102647 0.194438 0)
(-0.0993313 0.171152 0)
(-0.0955861 0.147172 0)
(-0.0917628 0.122767 0)
(-0.0881608 0.0981011 0)
(-0.0850277 0.0732606 0)
(-0.0825602 0.0482718 0)
(-0.0809055 0.0231201 0)
(-0.0801617 -0.00223543 0)
(-0.0803781 -0.0278476 0)
(-0.0815528 -0.0537669 0)
(-0.0836294 -0.0800259 0)
(-0.0864921 -0.106621 0)
(-0.0899593 -0.133489 0)
(-0.0937765 -0.160481 0)
(-0.0976103 -0.187327 0)
(-0.101045 -0.213591 0)
(-0.103584 -0.238626 0)
(-0.104666 -0.261509 0)
(-0.103691 -0.280993 0)
(-0.100077 -0.295445 0)
(-0.0933439 -0.302829 0)
(-0.0832299 -0.300714 0)
(-0.0698389 -0.286369 0)
(-0.0537895 -0.256945 0)
(-0.0363191 -0.209768 0)
(-0.0192749 -0.142724 0)
(-0.0048377 -0.0546625 0)
(-0.00486843 0.0541513 0)