/*--------------------------------*- C++ -*----------------------------------*\
| =========                 |                                                 |
| \\      /  F ield         | OpenFOAM: The Open Source CFD Toolbox           |
|  \\    /   O peration     | Version:  4.1                                   |
|   \\  /    A nd           | Web:      www.OpenFOAM.org                      |
|    \\/     M anipulation  |                                                 |
\*---------------------------------------------------------------------------*/
FoamFile
{
    version     2.0;
    format      ascii;
    class       volScalarField;
    location    "0.0028";
    object      p;
}
// * * * * * * * * * * * * * * * * * * * * * * * * * * * * * * * * * * * * * //

dimensions      [1 -1 -2 0 0 0 0];

internalField   nonuniform List<scalar> 
441
(
100000
99999.9
99999.7
100000
100000
99999.6
100000
100000
100000
100001
100001
100001
100001
100001
100001
100001
100001
100001
100001
100001
100001
100000
100000
100000
100000
100000
100000
100000
100000
100000
100000
100001
100000
100000
100000
100000
100001
100000
100001
100000
100001
100000
100000
99999.9
99999.9
99999.9
100000
99999.9
100000
100000
100000
100001
100001
100001
100001
100001
100001
100001
100001
100001
100001
100001
100001
100000
99999.9
100000
100000
100000
100000
100000
100000
100000
100000
100000
100000
100001
100001
100001
100001
100001
100001
100001
100001
100001
100000
99999.5
99999.7
99999.6
99999.7
99999.8
99999.9
100000
100000
100000
100000
100001
100001
100001
100001
100001
100001
100001
100001
100001
100001
99998.7
99999.4
99999.2
99999.5
99999.5
99999.6
99999.7
99999.9
100000
100000
100000
100001
100001
100001
100001
100001
100001
100001
100001
100001
100001
99998.3
99998.6
99998.7
99998.9
99999
99999.2
99999.4
99999.7
99999.9
100000
100000
100001
100001
100001
100001
100001
100001
100002
100001
100002
100001
99998.2
99998.3
99998.3
99998.6
99998.7
99998.9
99999.1
99999.5
99999.7
100000
100000
100001
100001
100001
100001
100002
100002
100002
100002
100002
100002
99997.3
99997.4
99997.5
99997.8
99998
99998.3
99998.6
99999.1
99999.5
100000
100000
100001
100001
100002
100002
100002
100003
100003
100003
100003
100002
99996.8
99996.9
99996.9
99997.2
99997.4
99997.8
99998.2
99998.7
99999.2
99999.8
100000
100001
100002
100002
100002
100003
100003
100003
100003
100004
100003
99995.5
99995.6
99995.7
99996.1
99996.4
99996.9
99997.4
99998.2
99998.8
99999.6
100000
100001
100002
100003
100003
100004
100004
100005
100005
100005
100006
99994.7
99994.8
99994.9
99995.3
99995.6
99996.3
99996.8
99997.7
99998.5
99999.4
100000
100001
100002
100003
100004
100004
100005
100005
100006
100006
100006
99992.7
99992.9
99993
99993.7
99994.1
99995
99995.7
99996.9
99997.9
99999.1
100000
100001
100003
100004
100005
100006
100007
100007
100007
100008
100005
99991.8
99992
99992
99992.8
99993.1
99994.2
99995
99996.3
99997.4
99998.8
100000
100001
100003
100004
100006
100006
100008
100008
100009
100009
100008
99988.5
99989
99989
99990.4
99990.9
99992.5
99993.5
99995.2
99996.6
99998.3
100000
100002
100004
100005
100007
100008
100011
100011
100012
100012
100010
99987.6
99988.1
99988
99989.4
99989.8
99991.6
99992.6
99994.5
99996.1
99997.9
99999.9
100002
100004
100005
100008
100009
100011
100012
100013
100013
100010
99981.7
99983.4
99983.1
99986
99986.6
99989.4
99990.8
99993.3
99995.2
99997.5
99999.7
100002
100004
100006
100010
100011
100016
100015
100023
100017
100033
99981.1
99982.8
99982.1
99985
99985.6
99988.5
99990
99992.7
99994.7
99997
99999.4
100001
100004
100006
100010
100011
100016
100016
100022
100021
100030
99967.9
99975.3
99974.3
99980.6
99981.7
99986.3
99988.2
99991.6
99994
99996.6
99999.3
100001
100005
100007
100011
100012
100019
100020
100031
100031
100044
99967.5
99975.5
99973.8
99979.8
99981
99985.7
99987.8
99991.3
99993.6
99996.3
99999
100001
100004
100006
100010
100011
100018
100018
100029
100030
100047
99923.9
99966
99965.3
99977.6
99979
99985
99987.2
99991
99993.5
99996.3
99999
100001
100005
100006
100011
100012
100021
100023
100042
100048
100100
)
;

boundaryField
{
    movingWall
    {
        type            zeroGradient;
    }
    fixedWalls
    {
        type            zeroGradient;
    }
    frontAndBack
    {
        type            empty;
    }
}


// ************************************************************************* //
