/*--------------------------------*- C++ -*----------------------------------*\
| =========                 |                                                 |
| \\      /  F ield         | OpenFOAM: The Open Source CFD Toolbox           |
|  \\    /   O peration     | Version:  4.1                                   |
|   \\  /    A nd           | Web:      www.OpenFOAM.org                      |
|    \\/     M anipulation  |                                                 |
\*---------------------------------------------------------------------------*/
FoamFile
{
    version     2.0;
    format      ascii;
    class       volVectorField;
    location    "0.1845";
    object      U;
}
// * * * * * * * * * * * * * * * * * * * * * * * * * * * * * * * * * * * * * //

dimensions      [0 1 -1 0 0 0 0];

internalField   nonuniform List<vector> 
6400
(
(8.03354e-06 -7.99853e-06 0)
(3.03256e-05 -1.16536e-05 0)
(4.85969e-05 -8.10155e-06 0)
(5.66677e-05 1.19596e-06 0)
(5.03027e-05 1.42246e-05 0)
(2.70098e-05 2.94086e-05 0)
(-1.44399e-05 4.56004e-05 0)
(-7.43561e-05 6.19858e-05 0)
(-0.000152398 7.79933e-05 0)
(-0.000247771 9.32257e-05 0)
(-0.000359363 0.000107411 0)
(-0.000485856 0.000120367 0)
(-0.000625788 0.000131977 0)
(-0.000777616 0.000142171 0)
(-0.000939752 0.000150913 0)
(-0.00111059 0.000158193 0)
(-0.00128853 0.000164021 0)
(-0.00147198 0.000168418 0)
(-0.00165941 0.000171417 0)
(-0.0018493 0.000173059 0)
(-0.0020402 0.000173389 0)
(-0.0022307 0.000172459 0)
(-0.00241946 0.000170321 0)
(-0.00260518 0.000167032 0)
(-0.00278664 0.000162648 0)
(-0.00296267 0.000157229 0)
(-0.00313219 0.000150834 0)
(-0.00329415 0.000143524 0)
(-0.00344759 0.00013536 0)
(-0.00359161 0.000126402 0)
(-0.00372538 0.000116713 0)
(-0.00384813 0.000106355 0)
(-0.00395917 9.53909e-05 0)
(-0.00405787 8.38845e-05 0)
(-0.00414367 7.18996e-05 0)
(-0.00421609 5.95013e-05 0)
(-0.00427471 4.67553e-05 0)
(-0.0043192 3.37283e-05 0)
(-0.00434927 2.0488e-05 0)
(-0.00436473 7.10337e-06 0)
(-0.00436547 -6.35565e-06 0)
(-0.00435145 -1.98178e-05 0)
(-0.00432269 -3.32109e-05 0)
(-0.00427932 -4.64611e-05 0)
(-0.00422153 -5.94941e-05 0)
(-0.0041496 -7.2234e-05 0)
(-0.00406389 -8.46043e-05 0)
(-0.00396484 -9.65278e-05 0)
(-0.00385299 -0.000107927 0)
(-0.00372894 -0.000118723 0)
(-0.0035934 -0.000128839 0)
(-0.00344716 -0.000138197 0)
(-0.00329107 -0.000146719 0)
(-0.00312609 -0.000154331 0)
(-0.00295326 -0.000160958 0)
(-0.00277368 -0.000166528 0)
(-0.00258855 -0.000170972 0)
(-0.00239912 -0.000174223 0)
(-0.00220674 -0.00017622 0)
(-0.0020128 -0.000176905 0)
(-0.00181876 -0.000176227 0)
(-0.00162613 -0.000174141 0)
(-0.00143648 -0.000170609 0)
(-0.00125139 -0.000165604 0)
(-0.00107248 -0.000159109 0)
(-0.000901405 -0.000151123 0)
(-0.000739782 -0.000141658 0)
(-0.000589227 -0.000130753 0)
(-0.000451305 -0.00011847 0)
(-0.000327507 -0.00010491 0)
(-0.000219202 -9.02217e-05 0)
(-0.000127593 -7.46185e-05 0)
(-5.36332e-05 -5.84023e-05 0)
(2.06582e-06 -4.19965e-05 0)
(3.93739e-05 -2.59929e-05 0)
(5.88284e-05 -1.1215e-05 0)
(6.18873e-05 1.19853e-06 0)
(5.12482e-05 9.71262e-06 0)
(3.12818e-05 1.24174e-05 0)
(8.16844e-06 8.10179e-06 0)
(1.18173e-05 -3.02653e-05 0)
(4.56265e-05 -4.51444e-05 0)
(6.53971e-05 -2.70234e-05 0)
(5.68308e-05 1.37671e-05 0)
(9.87198e-06 6.90085e-05 0)
(-8.16148e-05 0.000132573 0)
(-0.000220846 0.000199997 0)
(-0.000408819 0.000268076 0)
(-0.000644882 0.000334534 0)
(-0.00092718 0.000397773 0)
(-0.00125299 0.000456683 0)
(-0.00161895 0.000510514 0)
(-0.00202131 0.000558775 0)
(-0.00245601 0.000601169 0)
(-0.00291881 0.000637538 0)
(-0.0034054 0.00066783 0)
(-0.00391144 0.000692071 0)
(-0.00443261 0.000710345 0)
(-0.00496464 0.000722782 0)
(-0.00550338 0.000729542 0)
(-0.00604477 0.000730813 0)
(-0.00658489 0.000726799 0)
(-0.00711996 0.000717722 0)
(-0.00764637 0.00070381 0)
(-0.00816066 0.000685303 0)
(-0.00865956 0.000662444 0)
(-0.00913995 0.000635482 0)
(-0.00959891 0.00060467 0)
(-0.0100337 0.000570263 0)
(-0.0104418 0.000532518 0)
(-0.0108208 0.000491696 0)
(-0.0111685 0.000448059 0)
(-0.0114831 0.000401872 0)
(-0.0117626 0.000353402 0)
(-0.0120055 0.00030292 0)
(-0.0122104 0.000250699 0)
(-0.0123762 0.000197017 0)
(-0.0125019 0.000142156 0)
(-0.0125868 8.64e-05 0)
(-0.0126302 3.00408e-05 0)
(-0.0126319 -2.66269e-05 0)
(-0.0125917 -8.33034e-05 0)
(-0.0125098 -0.000139684 0)
(-0.0123865 -0.000195459 0)
(-0.0122223 -0.000250314 0)
(-0.0120182 -0.000303932 0)
(-0.011775 -0.00035599 0)
(-0.0114942 -0.000406166 0)
(-0.0111771 -0.000454132 0)
(-0.0108256 -0.000499562 0)
(-0.0104417 -0.000542128 0)
(-0.0100275 -0.000581507 0)
(-0.00958551 -0.000617376 0)
(-0.00911844 -0.00064942 0)
(-0.0086292 -0.000677329 0)
(-0.00812092 -0.000700803 0)
(-0.00759694 -0.000719555 0)
(-0.0070608 -0.000733309 0)
(-0.00651624 -0.00074181 0)
(-0.00596717 -0.000744821 0)
(-0.00541764 -0.00074213 0)
(-0.00487185 -0.000733553 0)
(-0.00433411 -0.00071894 0)
(-0.00380882 -0.000698182 0)
(-0.00330041 -0.000671216 0)
(-0.00281335 -0.00063804 0)
(-0.00235204 -0.000598723 0)
(-0.00192083 -0.000553422 0)
(-0.00152387 -0.000502412 0)
(-0.00116508 -0.000446114 0)
(-0.000847988 -0.000385146 0)
(-0.000575642 -0.000320385 0)
(-0.000350374 -0.000253059 0)
(-0.000173577 -0.000184872 0)
(-4.53792e-05 -0.00011818 0)
(3.57683e-05 -5.62189e-05 0)
(7.36299e-05 -3.41578e-06 0)
(7.48236e-05 3.42627e-05 0)
(4.9725e-05 4.8972e-05 0)
(1.26784e-05 3.11448e-05 0)
(8.46603e-06 -4.87131e-05 0)
(2.82933e-05 -6.4979e-05 0)
(2.11554e-05 -1.93976e-05 0)
(-3.13949e-05 6.84209e-05 0)
(-0.000142799 0.000183377 0)
(-0.000321513 0.000314135 0)
(-0.000572138 0.000452297 0)
(-0.000896225 0.000591711 0)
(-0.00129298 0.000727915 0)
(-0.00175983 0.000857703 0)
(-0.00229286 0.000978807 0)
(-0.0028872 0.00108965 0)
(-0.00353724 0.00118918 0)
(-0.00423691 0.00127672 0)
(-0.00497981 0.0013519 0)
(-0.00575936 0.00141455 0)
(-0.00656887 0.00146469 0)
(-0.00740169 0.00150245 0)
(-0.0082512 0.00152806 0)
(-0.0091109 0.00154184 0)
(-0.00997444 0.00154414 0)
(-0.0108357 0.00153538 0)
(-0.0116887 0.001516 0)
(-0.0125277 0.00148646 0)
(-0.0133473 0.00144726 0)
(-0.0141423 0.00139889 0)
(-0.0149077 0.00134189 0)
(-0.0156389 0.00127676 0)
(-0.0163315 0.00120406 0)
(-0.0169816 0.0011243 0)
(-0.0175852 0.00103806 0)
(-0.018139 0.000945867 0)
(-0.0186398 0.000848294 0)
(-0.0190848 0.000745902 0)
(-0.0194715 0.000639265 0)
(-0.0197976 0.000528963 0)
(-0.0200613 0.000415583 0)
(-0.0202611 0.000299722 0)
(-0.0203958 0.000181985 0)
(-0.0204644 6.29863e-05 0)
(-0.0204666 -5.66485e-05 0)
(-0.0204021 -0.000176285 0)
(-0.0202711 -0.000295279 0)
(-0.0200742 -0.000412977 0)
(-0.0198124 -0.000528717 0)
(-0.0194868 -0.000641827 0)
(-0.0190993 -0.000751632 0)
(-0.0186517 -0.000857448 0)
(-0.0181466 -0.000958591 0)
(-0.0175868 -0.00105437 0)
(-0.0169753 -0.00114411 0)
(-0.0163157 -0.00122713 0)
(-0.0156121 -0.00130275 0)
(-0.0148685 -0.00137032 0)
(-0.0140897 -0.0014292 0)
(-0.0132805 -0.00147875 0)
(-0.0124464 -0.0015184 0)
(-0.0115928 -0.00154757 0)
(-0.0107256 -0.00156573 0)
(-0.00985104 -0.00157242 0)
(-0.00897542 -0.00156719 0)
(-0.00810531 -0.0015497 0)
(-0.00724742 -0.00151964 0)
(-0.0064086 -0.00147682 0)
(-0.00559572 -0.00142114 0)
(-0.00481565 -0.00135263 0)
(-0.00407516 -0.00127147 0)
(-0.00338087 -0.00117803 0)
(-0.00273906 -0.00107293 0)
(-0.00215561 -0.000957076 0)
(-0.00163575 -0.000831784 0)
(-0.00118394 -0.000698876 0)
(-0.000803514 -0.000560856 0)
(-0.000496372 -0.000421134 0)
(-0.000262571 -0.00028432 0)
(-9.97734e-05 -0.000156632 0)
(-2.60892e-06 -4.6396e-05 0)
(3.80594e-05 3.53284e-05 0)
(3.6148e-05 7.4049e-05 0)
(1.0267e-05 5.12805e-05 0)
(-5.63128e-07 -5.72949e-05 0)
(-1.1431e-05 -5.71281e-05 0)
(-6.48159e-05 3.28787e-05 0)
(-0.000180849 0.000184869 0)
(-0.000374514 0.000377163 0)
(-0.000655348 0.000593177 0)
(-0.00102859 0.000820367 0)
(-0.00149599 0.00104934 0)
(-0.0020565 0.00127313 0)
(-0.00270693 0.00148662 0)
(-0.00344242 0.00168612 0)
(-0.00425683 0.00186898 0)
(-0.0051431 0.0020334 0)
(-0.00609348 0.00217819 0)
(-0.00709977 0.00230263 0)
(-0.00815347 0.00240638 0)
(-0.00924593 0.00248938 0)
(-0.0103685 0.00255179 0)
(-0.0115124 0.00259394 0)
(-0.0126692 0.00261628 0)
(-0.0138306 0.0026194 0)
(-0.0149883 0.00260394 0)
(-0.0161345 0.00257062 0)
(-0.0172617 0.00252019 0)
(-0.0183625 0.00245345 0)
(-0.01943 0.00237125 0)
(-0.0204577 0.00227445 0)
(-0.0214393 0.00216391 0)
(-0.0223691 0.00204054 0)
(-0.0232415 0.00190525 0)
(-0.0240516 0.00175896 0)
(-0.0247946 0.0016026 0)
(-0.0254665 0.00143713 0)
(-0.0260634 0.00126349 0)
(-0.0265819 0.00108268 0)
(-0.0270191 0.000895657 0)
(-0.0273726 0.000703437 0)
(-0.0276402 0.000507029 0)
(-0.0278203 0.000307462 0)
(-0.0279119 0.000105781 0)
(-0.0279142 -9.69536e-05 0)
(-0.0278271 -0.000299664 0)
(-0.0276508 -0.000501259 0)
(-0.0273862 -0.000700628 0)
(-0.0270344 -0.000896652 0)
(-0.0265972 -0.0010882 0)
(-0.0260768 -0.00127411 0)
(-0.0254761 -0.00145326 0)
(-0.0247982 -0.00162447 0)
(-0.0240469 -0.0017866 0)
(-0.0232264 -0.0019385 0)
(-0.0223416 -0.00207902 0)
(-0.0213975 -0.00220704 0)
(-0.0203999 -0.00232146 0)
(-0.019355 -0.00242121 0)
(-0.0182694 -0.00250526 0)
(-0.01715 -0.00257262 0)
(-0.0160044 -0.00262235 0)
(-0.0148402 -0.00265361 0)
(-0.0136656 -0.00266561 0)
(-0.0124891 -0.00265766 0)
(-0.0113191 -0.00262919 0)
(-0.0101647 -0.00257975 0)
(-0.00903473 -0.00250905 0)
(-0.00793816 -0.00241699 0)
(-0.00688395 -0.00230367 0)
(-0.00588089 -0.00216945 0)
(-0.00493749 -0.00201504 0)
(-0.00406182 -0.00184151 0)
(-0.00326137 -0.00165045 0)
(-0.00254279 -0.00144408 0)
(-0.00191165 -0.00122542 0)
(-0.00137213 -0.000998554 0)
(-0.000926597 -0.000768901 0)
(-0.000575185 -0.000543667 0)
(-0.000315193 -0.000332352 0)
(-0.000140432 -0.000147414 0)
(-4.0507e-05 -5.07426e-06 0)
(2.11509e-07 7.375e-05 0)
(2.19271e-06 6.25236e-05 0)
(-1.33263e-05 -5.18485e-05 0)
(-6.56405e-05 -1.16182e-05 0)
(-0.00017812 0.000143239 0)
(-0.000371126 0.000378184 0)
(-0.000659883 0.000665765 0)
(-0.001054 0.000984522 0)
(-0.00155863 0.00131787 0)
(-0.00217527 0.00165313 0)
(-0.00290242 0.00198068 0)
(-0.00373619 0.00229332 0)
(-0.00467084 0.00258574 0)
(-0.00569914 0.00285406 0)
(-0.00681276 0.00309556 0)
(-0.00800253 0.0033084 0)
(-0.00925873 0.00349142 0)
(-0.0105712 0.00364401 0)
(-0.0119297 0.00376597 0)
(-0.0133236 0.00385746 0)
(-0.0147426 0.00391888 0)
(-0.0161764 0.00395086 0)
(-0.0176147 0.00395418 0)
(-0.0190478 0.00392975 0)
(-0.0204661 0.00387861 0)
(-0.0218602 0.00380185 0)
(-0.0232214 0.00370065 0)
(-0.024541 0.00357624 0)
(-0.0258111 0.00342988 0)
(-0.0270241 0.00326289 0)
(-0.0281727 0.00307659 0)
(-0.0292504 0.00287235 0)
(-0.0302509 0.00265155 0)
(-0.0311685 0.0024156 0)
(-0.031998 0.00216592 0)
(-0.0327348 0.00190397 0)
(-0.0333748 0.0016312 0)
(-0.0339143 0.00134911 0)
(-0.0343502 0.0010592 0)
(-0.0346801 0.000763004 0)
(-0.034902 0.000462076 0)
(-0.0350146 0.000157995 0)
(-0.0350169 -0.00014764 0)
(-0.0349088 -0.000453201 0)
(-0.0346906 -0.000757043 0)
(-0.0343634 -0.0010575 0)
(-0.0339286 -0.00135287 0)
(-0.0333884 -0.00164146 0)
(-0.0327457 -0.00192156 0)
(-0.0320037 -0.00219142 0)
(-0.0311665 -0.00244933 0)
(-0.0302388 -0.00269354 0)
(-0.0292257 -0.00292235 0)
(-0.0281331 -0.00313406 0)
(-0.0269673 -0.00332698 0)
(-0.0257354 -0.00349948 0)
(-0.0244448 -0.00364998 0)
(-0.0231038 -0.00377694 0)
(-0.0217208 -0.00387892 0)
(-0.0203049 -0.00395454 0)
(-0.0188656 -0.00400256 0)
(-0.0174127 -0.00402184 0)
(-0.0159565 -0.0040114 0)
(-0.0145074 -0.00397044 0)
(-0.0130762 -0.00389835 0)
(-0.0116736 -0.00379476 0)
(-0.0103104 -0.00365957 0)
(-0.0089974 -0.00349303 0)
(-0.00774507 -0.00329576 0)
(-0.00656357 -0.00306888 0)
(-0.00546251 -0.00281407 0)
(-0.00445074 -0.00253376 0)
(-0.00353612 -0.00223123 0)
(-0.00272525 -0.00191092 0)
(-0.00202309 -0.00157868 0)
(-0.00143259 -0.00124215 0)
(-0.00095421 -0.000911283 0)
(-0.000585366 -0.00059894 0)
(-0.00031978 -0.000321634 0)
(-0.000146815 -0.000100425 0)
(-5.04115e-05 3.80637e-05 0)
(-9.66846e-06 6.06844e-05 0)
(-2.83532e-05 -2.98441e-05 0)
(-0.000128655 7.79098e-05 0)
(-0.000308367 0.000320621 0)
(-0.000587269 0.000658678 0)
(-0.000979946 0.00105986 0)
(-0.0014953 0.00149843 0)
(-0.00213781 0.00195408 0)
(-0.00290825 0.00241096 0)
(-0.00380439 0.00285684 0)
(-0.00482153 0.00328236 0)
(-0.00595298 0.0036805 0)
(-0.00719047 0.00404603 0)
(-0.00852453 0.00437521 0)
(-0.00994474 0.00466542 0)
(-0.01144 0.00491499 0)
(-0.0129988 0.00512295 0)
(-0.0146093 0.00528894 0)
(-0.0162594 0.00541306 0)
(-0.0179373 0.00549577 0)
(-0.019631 0.00553784 0)
(-0.0213289 0.00554028 0)
(-0.0230194 0.0055043 0)
(-0.0246916 0.00543127 0)
(-0.0263346 0.00532266 0)
(-0.027938 0.00518007 0)
(-0.0294922 0.00500517 0)
(-0.0309875 0.00479972 0)
(-0.0324153 0.0045655 0)
(-0.033767 0.00430436 0)
(-0.035035 0.00401819 0)
(-0.0362119 0.00370892 0)
(-0.0372912 0.0033785 0)
(-0.0382667 0.00302893 0)
(-0.0391331 0.00266222 0)
(-0.0398854 0.00228042 0)
(-0.0405194 0.00188562 0)
(-0.0410317 0.00147992 0)
(-0.0414192 0.00106548 0)
(-0.0416797 0.000644457 0)
(-0.0418115 0.000219069 0)
(-0.0418138 -0.000208445 0)
(-0.0416863 -0.000635815 0)
(-0.0414293 -0.00106074 0)
(-0.0410442 -0.00148088 0)
(-0.0405326 -0.00189389 0)
(-0.0398972 -0.00229738 0)
(-0.0391412 -0.00268898 0)
(-0.0382686 -0.00306626 0)
(-0.0372841 -0.00342682 0)
(-0.036193 -0.00376827 0)
(-0.0350015 -0.00408823 0)
(-0.0337164 -0.00438433 0)
(-0.0323452 -0.00465426 0)
(-0.0308959 -0.00489576 0)
(-0.0293774 -0.00510666 0)
(-0.0277991 -0.00528484 0)
(-0.026171 -0.00542833 0)
(-0.0245034 -0.00553526 0)
(-0.0228075 -0.00560394 0)
(-0.0210947 -0.00563285 0)
(-0.0193768 -0.00562067 0)
(-0.0176658 -0.00556635 0)
(-0.0159741 -0.00546913 0)
(-0.0143141 -0.00532856 0)
(-0.0126982 -0.00514461 0)
(-0.0111388 -0.00491769 0)
(-0.00964779 -0.00464877 0)
(-0.00823684 -0.00433946 0)
(-0.00691688 -0.00399218 0)
(-0.005698 -0.00361027 0)
(-0.00458919 -0.00319825 0)
(-0.00359802 -0.00276209 0)
(-0.00273032 -0.00230952 0)
(-0.00198978 -0.0018505 0)
(-0.00137748 -0.00139773 0)
(-0.000891402 -0.000967318 0)
(-0.000525809 -0.000579563 0)
(-0.000270586 -0.000259824 0)
(-0.000110111 -3.94986e-05 0)
(-2.38639e-05 4.31663e-05 0)
(-4.46198e-05 1.01206e-05 0)
(-0.000196527 0.000215259 0)
(-0.000448237 0.000570673 0)
(-0.000818537 0.00103312 0)
(-0.00132083 0.00156663 0)
(-0.00196274 0.00214187 0)
(-0.00274759 0.00273526 0)
(-0.00367507 0.00332804 0)
(-0.0047419 0.00390549 0)
(-0.00594238 0.00445615 0)
(-0.00726881 0.00497125 0)
(-0.00871185 0.00544418 0)
(-0.0102609 0.00587011 0)
(-0.0119044 0.0062456 0)
(-0.0136301 0.00656836 0)
(-0.015425 0.00683707 0)
(-0.0172761 0.0070511 0)
(-0.01917 0.00721049 0)
(-0.0210933 0.00731573 0)
(-0.0230328 0.00736774 0)
(-0.0249754 0.00736776 0)
(-0.0269083 0.0073173 0)
(-0.0288189 0.00721808 0)
(-0.0306953 0.00707202 0)
(-0.0325258 0.00688115 0)
(-0.0342992 0.00664766 0)
(-0.0360051 0.0063738 0)
(-0.0376333 0.00606194 0)
(-0.0391746 0.00571449 0)
(-0.0406199 0.00533394 0)
(-0.0419613 0.00492283 0)
(-0.0431911 0.00448374 0)
(-0.0443025 0.00401931 0)
(-0.0452893 0.0035322 0)
(-0.0461461 0.00302513 0)
(-0.0468682 0.00250087 0)
(-0.0474514 0.0019622 0)
(-0.0478924 0.00141199 0)
(-0.0481888 0.000853107 0)
(-0.0483386 0.000288484 0)
(-0.048341 -0.000278908 0)
(-0.0481954 -0.000846059 0)
(-0.0479026 -0.00140992 0)
(-0.0474637 -0.0019674 0)
(-0.046881 -0.00251539 0)
(-0.0461572 -0.00305074 0)
(-0.045296 -0.00357029 0)
(-0.0443021 -0.00407087 0)
(-0.0431806 -0.00454931 0)
(-0.0419377 -0.00500245 0)
(-0.0405803 -0.00542715 0)
(-0.039116 -0.00582032 0)
(-0.0375533 -0.00617892 0)
(-0.0359014 -0.00649999 0)
(-0.0341701 -0.00678069 0)
(-0.03237 -0.00701827 0)
(-0.0305124 -0.00721015 0)
(-0.028609 -0.00735393 0)
(-0.0266722 -0.00744742 0)
(-0.0247148 -0.00748867 0)
(-0.02275 -0.00747602 0)
(-0.0207914 -0.00740816 0)
(-0.0188526 -0.00728415 0)
(-0.0169477 -0.0071035 0)
(-0.0150904 -0.00686625 0)
(-0.0132944 -0.00657305 0)
(-0.0115732 -0.00622524 0)
(-0.0099395 -0.00582502 0)
(-0.00840564 -0.00537558 0)
(-0.00698283 -0.0048813 0)
(-0.00568116 -0.00434801 0)
(-0.00450922 -0.00378326 0)
(-0.0034738 -0.00319671 0)
(-0.00257953 -0.00260061 0)
(-0.00182841 -0.00201031 0)
(-0.0012194 -0.00144496 0)
(-0.000747776 -0.000928216 0)
(-0.000404501 -0.000489125 0)
(-0.00017494 -0.000162899 0)
(-3.93681e-05 8.49339e-06 0)
(-6.14418e-05 6.86745e-05 0)
(-0.000266596 0.000402399 0)
(-0.000592694 0.000896588 0)
(-0.00105739 0.00150556 0)
(-0.00167259 0.00219052 0)
(-0.0024443 0.00291926 0)
(-0.00337427 0.00366539 0)
(-0.0044608 0.00440759 0)
(-0.00569932 0.00512884 0)
(-0.00708294 0.0058157 0)
(-0.0086028 0.00645773 0)
(-0.0102485 0.00704694 0)
(-0.0120082 0.00757737 0)
(-0.0138693 0.00804476 0)
(-0.0158183 0.00844619 0)
(-0.0178412 0.00877989 0)
(-0.0199236 0.009045 0)
(-0.0220509 0.00924143 0)
(-0.0242086 0.00936972 0)
(-0.0263821 0.00943092 0)
(-0.0285571 0.0094265 0)
(-0.0307195 0.00935829 0)
(-0.0328557 0.0092284 0)
(-0.0349524 0.00903918 0)
(-0.0369968 0.00879319 0)
(-0.0389768 0.00849312 0)
(-0.0408805 0.00814182 0)
(-0.0426971 0.00774225 0)
(-0.0444161 0.00729748 0)
(-0.0460278 0.00681063 0)
(-0.0475232 0.00628492 0)
(-0.0488939 0.00572365 0)
(-0.0501325 0.00513013 0)
(-0.0512321 0.00450779 0)
(-0.0521867 0.00386008 0)
(-0.052991 0.00319051 0)
(-0.0536406 0.00250265 0)
(-0.0541319 0.00180012 0)
(-0.0544619 0.0010866 0)
(-0.0546288 0.000365824 0)
(-0.0546313 -0.00035843 0)
(-0.0544692 -0.00108233 0)
(-0.0541431 -0.00180198 0)
(-0.0536543 -0.00251347 0)
(-0.0530053 -0.00321283 0)
(-0.0521991 -0.00389607 0)
(-0.05124 -0.00455918 0)
(-0.0501328 -0.00519812 0)
(-0.0488835 -0.00580889 0)
(-0.0474988 -0.00638748 0)
(-0.0459862 -0.00692992 0)
(-0.0443542 -0.0074323 0)
(-0.0426122 -0.0078908 0)
(-0.0407701 -0.00830168 0)
(-0.038839 -0.00866136 0)
(-0.0368304 -0.0089664 0)
(-0.0347566 -0.00921357 0)
(-0.0326306 -0.00939987 0)
(-0.030466 -0.00952258 0)
(-0.0282767 -0.00957929 0)
(-0.0260774 -0.00956797 0)
(-0.0238828 -0.00948704 0)
(-0.0217081 -0.00933538 0)
(-0.0195682 -0.00911247 0)
(-0.0174785 -0.00881844 0)
(-0.0154539 -0.00845418 0)
(-0.0135089 -0.00802148 0)
(-0.0116578 -0.00752315 0)
(-0.00991392 -0.00696322 0)
(-0.00828963 -0.00634714 0)
(-0.00679613 -0.00568205 0)
(-0.00544313 -0.00497713 0)
(-0.00423852 -0.00424393 0)
(-0.00318804 -0.00349688 0)
(-0.00229492 -0.00275382 0)
(-0.00155938 -0.00203663 0)
(-0.000978101 -0.00137192 0)
(-0.000543491 -0.000791748 0)
(-0.000242214 -0.000334272 0)
(-5.54895e-05 -4.40328e-05 0)
(-7.83758e-05 0.000145943 0)
(-0.000337118 0.000640046 0)
(-0.000738375 0.00129981 0)
(-0.00129868 0.00207805 0)
(-0.00202831 0.00293397 0)
(-0.00293141 0.00383309 0)
(-0.00400793 0.00474672 0)
(-0.00525451 0.00565136 0)
(-0.00666508 0.00652793 0)
(-0.00823137 0.00736118 0)
(-0.00994324 0.00813909 0)
(-0.0117891 0.00885238 0)
(-0.0137559 0.009494 0)
(-0.01583 0.0100588 0)
(-0.0179967 0.0105434 0)
(-0.0202409 0.0109454 0)
(-0.022547 0.0112637 0)
(-0.0248993 0.0114982 0)
(-0.0272822 0.0116493 0)
(-0.0296799 0.0117184 0)
(-0.0320771 0.0117071 0)
(-0.0344585 0.0116175 0)
(-0.0368094 0.0114523 0)
(-0.0391154 0.0112141 0)
(-0.0413628 0.0109061 0)
(-0.0435383 0.0105316 0)
(-0.0456292 0.0100941 0)
(-0.0476237 0.00959707 0)
(-0.0495105 0.00904436 0)
(-0.0512791 0.00843979 0)
(-0.0529197 0.00778733 0)
(-0.0544232 0.00709099 0)
(-0.0557816 0.00635492 0)
(-0.0569874 0.00558329 0)
(-0.058034 0.00478038 0)
(-0.0589159 0.00395052 0)
(-0.0596281 0.00309813 0)
(-0.0601667 0.00222768 0)
(-0.0605286 0.0013437 0)
(-0.0607117 0.000450812 0)
(-0.0607147 -0.00044632 0)
(-0.0605374 -0.00134296 0)
(-0.0601804 -0.00223432 0)
(-0.0596452 -0.00311556 0)
(-0.0589343 -0.00398179 0)
(-0.0580512 -0.0048281 0)
(-0.0570003 -0.00564953 0)
(-0.0557871 -0.00644115 0)
(-0.0544179 -0.007198 0)
(-0.0529 -0.00791517 0)
(-0.0512416 -0.00858779 0)
(-0.0494518 -0.00921107 0)
(-0.0475407 -0.00978032 0)
(-0.0455193 -0.010291 0)
(-0.0433993 -0.0107386 0)
(-0.0411932 -0.0111191 0)
(-0.0389144 -0.0114285 0)
(-0.036577 -0.0116632 0)
(-0.0341954 -0.0118198 0)
(-0.031785 -0.0118955 0)
(-0.0293612 -0.0118878 0)
(-0.0269402 -0.0117949 0)
(-0.0245382 -0.0116155 0)
(-0.0221716 -0.011349 0)
(-0.0198566 -0.0109956 0)
(-0.0176095 -0.0105565 0)
(-0.0154461 -0.010034 0)
(-0.0133816 -0.00943147 0)
(-0.0114307 -0.0087538 0)
(-0.0096068 -0.00800752 0)
(-0.00792234 -0.00720111 0)
(-0.00638822 -0.00634528 0)
(-0.00501355 -0.00545343 0)
(-0.00380541 -0.00454202 0)
(-0.00276843 -0.00363115 0)
(-0.00190439 -0.00274512 0)
(-0.0012116 -0.00191303 0)
(-0.000684154 -0.00116937 0)
(-0.000310163 -0.00055449 0)
(-7.17767e-05 -0.000114599 0)
(-9.51459e-05 0.000241734 0)
(-0.000406998 0.000928081 0)
(-0.000883115 0.00178057 0)
(-0.00153902 0.00275123 0)
(-0.00238333 0.00379789 0)
(-0.00341821 0.0048844 0)
(-0.00464166 0.00598024 0)
(-0.00604847 0.00706003 0)
(-0.00763088 0.00810295 0)
(-0.0093791 0.00909215 0)
(-0.0112816 0.0100142 0)
(-0.0133254 0.0108585 0)
(-0.0154965 0.0116172 0)
(-0.0177798 0.0122841 0)
(-0.0201596 0.0128553 0)
(-0.0226196 0.0133281 0)
(-0.0251432 0.013701 0)
(-0.0277137 0.0139738 0)
(-0.0303143 0.0141471 0)
(-0.0329283 0.0142222 0)
(-0.0355391 0.0142011 0)
(-0.0381307 0.0140863 0)
(-0.0406872 0.0138808 0)
(-0.0431933 0.0135878 0)
(-0.0456344 0.013211 0)
(-0.0479962 0.0127543 0)
(-0.0502653 0.0122219 0)
(-0.052429 0.011618 0)
(-0.0544752 0.0109471 0)
(-0.0563927 0.0102138 0)
(-0.0581709 0.00942295 0)
(-0.0598004 0.0085793 0)
(-0.0612722 0.00768781 0)
(-0.0625786 0.00675355 0)
(-0.0637125 0.00578165 0)
(-0.0646679 0.00477734 0)
(-0.0654395 0.00374592 0)
(-0.0660231 0.00269278 0)
(-0.0664155 0.0016234 0)
(-0.0666144 0.000543326 0)
(-0.0666184 -0.000541814 0)
(-0.0664272 -0.00162632 0)
(-0.0660415 -0.00270443 0)
(-0.0654629 -0.00377032 0)
(-0.0646941 -0.0048181 0)
(-0.0637388 -0.00584187 0)
(-0.0626018 -0.00683569 0)
(-0.0612888 -0.0077936 0)
(-0.0598067 -0.00870968 0)
(-0.0581631 -0.00957803 0)
(-0.0563668 -0.0103928 0)
(-0.0544277 -0.0111483 0)
(-0.0523565 -0.0118388 0)
(-0.0501648 -0.012459 0)
(-0.0478652 -0.0130035 0)
(-0.0454711 -0.0134674 0)
(-0.0429967 -0.0138461 0)
(-0.0404569 -0.0141351 0)
(-0.0378674 -0.0143306 0)
(-0.0352444 -0.0144291 0)
(-0.0326045 -0.0144279 0)
(-0.0299648 -0.0143247 0)
(-0.0273427 -0.0141181 0)
(-0.0247557 -0.0138074 0)
(-0.0222211 -0.0133929 0)
(-0.0197564 -0.0128762 0)
(-0.0173785 -0.0122598 0)
(-0.0151038 -0.0115478 0)
(-0.0129481 -0.010746 0)
(-0.0109261 -0.00986195 0)
(-0.00905146 -0.00890539 0)
(-0.00733634 -0.00788853 0)
(-0.00579127 -0.00682644 0)
(-0.00442477 -0.00573749 0)
(-0.0032431 -0.00464378 0)
(-0.00224975 -0.00357172 0)
(-0.00144485 -0.00255247 0)
(-0.000824304 -0.00162245 0)
(-0.000377676 -0.000823589 0)
(-8.79485e-05 -0.000203072 0)
(-0.000111591 0.000355675 0)
(-0.000475594 0.00126586 0)
(-0.0010256 0.0023383 0)
(-0.00177628 0.00352473 0)
(-0.00273465 0.00478217 0)
(-0.00390085 0.00607322 0)
(-0.00527083 0.00736595 0)
(-0.0068374 0.00863348 0)
(-0.00859102 0.00985351 0)
(-0.0105202 0.0110078 0)
(-0.012612 0.0120817 0)
(-0.0148519 0.0130634 0)
(-0.0172247 0.0139442 0)
(-0.0197141 0.0147173 0)
(-0.0223031 0.015378 0)
(-0.0249746 0.0159234 0)
(-0.0277108 0.0163517 0)
(-0.0304938 0.0166625 0)
(-0.033306 0.0168567 0)
(-0.0361295 0.0169355 0)
(-0.0389471 0.0169014 0)
(-0.0417415 0.0167572 0)
(-0.044496 0.0165062 0)
(-0.0471946 0.0161524 0)
(-0.0498216 0.0156999 0)
(-0.0523621 0.0151534 0)
(-0.0548019 0.0145176 0)
(-0.0571273 0.0137976 0)
(-0.0593258 0.0129986 0)
(-0.0613854 0.0121261 0)
(-0.063295 0.0111856 0)
(-0.0650445 0.0101829 0)
(-0.0666246 0.00912373 0)
(-0.0680269 0.00801413 0)
(-0.0692441 0.00686013 0)
(-0.0702696 0.00566789 0)
(-0.0710981 0.00444369 0)
(-0.071725 0.00319389 0)
(-0.0721468 0.00192494 0)
(-0.0723612 0.000643401 0)
(-0.0723667 -0.000644086 0)
(-0.0721629 -0.0019308 0)
(-0.0717505 -0.00320993 0)
(-0.0711314 -0.00447461 0)
(-0.0703083 -0.00571792 0)
(-0.0692851 -0.00693287 0)
(-0.0680668 -0.00811248 0)
(-0.0666596 -0.00924975 0)
(-0.0650705 -0.0103377 0)
(-0.0633077 -0.0113693 0)
(-0.0613806 -0.0123378 0)
(-0.0592995 -0.0132364 0)
(-0.0570757 -0.0140586 0)
(-0.0547215 -0.0147978 0)
(-0.0522501 -0.0154481 0)
(-0.0496758 -0.0160034 0)
(-0.0470136 -0.0164584 0)
(-0.0442791 -0.0168081 0)
(-0.0414891 -0.0170477 0)
(-0.0386605 -0.0171734 0)
(-0.0358111 -0.017182 0)
(-0.0329589 -0.0170707 0)
(-0.0301223 -0.016838 0)
(-0.0273199 -0.0164831 0)
(-0.0245702 -0.0160065 0)
(-0.0218916 -0.0154099 0)
(-0.0193022 -0.0146963 0)
(-0.0168197 -0.0138703 0)
(-0.014461 -0.0129387 0)
(-0.0122421 -0.0119099 0)
(-0.0101779 -0.0107948 0)
(-0.00828211 -0.00960715 0)
(-0.00656664 -0.00836349 0)
(-0.00504167 -0.00708388 0)
(-0.00371518 -0.00579223 0)
(-0.00259253 -0.00451673 0)
(-0.00167576 -0.00329024 0)
(-0.000962629 -0.00215069 0)
(-0.000444104 -0.00114108 0)
(-0.000103842 -0.000309129 0)
(-0.00012763 0.000487295 0)
(-0.000542568 0.00165245 0)
(-0.00116512 0.00297193 0)
(-0.00200926 0.00439759 0)
(-0.00308049 0.00588596 0)
(-0.00437698 0.00739884 0)
(-0.00589255 0.00890322 0)
(-0.007618 0.010371 0)
(-0.00954185 0.0117788 0)
(-0.0116509 0.0131071 0)
(-0.0139305 0.0143401 0)
(-0.0163648 0.0154653 0)
(-0.0189371 0.0164728 0)
(-0.0216299 0.0173555 0)
(-0.0244252 0.0181081 0)
(-0.0273045 0.0187273 0)
(-0.0302491 0.0192111 0)
(-0.0332401 0.0195593 0)
(-0.0362588 0.0197726 0)
(-0.0392866 0.0198525 0)
(-0.0423051 0.0198018 0)
(-0.0452963 0.0196237 0)
(-0.0482427 0.019322 0)
(-0.0511274 0.0189013 0)
(-0.0539339 0.0183662 0)
(-0.0566467 0.0177222 0)
(-0.0592507 0.0169747 0)
(-0.0617318 0.0161296 0)
(-0.0640766 0.0151928 0)
(-0.0662726 0.0141708 0)
(-0.0683083 0.01307 0)
(-0.070173 0.0118969 0)
(-0.071857 0.0106583 0)
(-0.0733514 0.00936123 0)
(-0.0746485 0.00801261 0)
(-0.0757415 0.00661963 0)
(-0.0766247 0.00518955 0)
(-0.0772934 0.00372978 0)
(-0.077744 0.0022478 0)
(-0.0779738 0.000751218 0)
(-0.0779814 -0.000752252 0)
(-0.0777663 -0.00225481 0)
(-0.0773293 -0.00374856 0)
(-0.0766723 -0.00522554 0)
(-0.075798 -0.00667771 0)
(-0.0747107 -0.00809699 0)
(-0.0734156 -0.00947527 0)
(-0.0719189 -0.0108044 0)
(-0.0702282 -0.0120764 0)
(-0.068352 -0.0132831 0)
(-0.0663001 -0.0144166 0)
(-0.0640832 -0.0154691 0)
(-0.0617132 -0.016433 0)
(-0.059203 -0.0173009 0)
(-0.0565665 -0.0180656 0)
(-0.0538186 -0.0187205 0)
(-0.0509749 -0.0192591 0)
(-0.0480522 -0.0196758 0)
(-0.0450676 -0.0199651 0)
(-0.0420392 -0.0201227 0)
(-0.0389856 -0.0201446 0)
(-0.0359258 -0.020028 0)
(-0.0328791 -0.0197708 0)
(-0.0298652 -0.0193725 0)
(-0.0269036 -0.0188332 0)
(-0.0240139 -0.0181551 0)
(-0.0212154 -0.0173415 0)
(-0.0185268 -0.0163976 0)
(-0.0159664 -0.0153309 0)
(-0.0135515 -0.0141507 0)
(-0.0112984 -0.0128691 0)
(-0.00922227 -0.0115011 0)
(-0.00733664 -0.0100646 0)
(-0.00565344 -0.0085812 0)
(-0.00418248 -0.00707636 0)
(-0.00293106 -0.00557977 0)
(-0.00190319 -0.00412573 0)
(-0.00109844 -0.00275328 0)
(-0.000509119 -0.00150619 0)
(-0.000119377 -0.000432354 0)
(-0.000143232 0.00063609 0)
(-0.000607796 0.00208676 0)
(-0.00130136 0.00368015 0)
(-0.0022374 0.00536843 0)
(-0.00341999 0.00710799 0)
(-0.00484536 0.0088601 0)
(-0.00650526 0.010591 0)
(-0.00838838 0.0122717 0)
(-0.0104813 0.0138777 0)
(-0.0127689 0.0153887 0)
(-0.0152349 0.016788 0)
(-0.017862 0.0180622 0)
(-0.020632 0.0192009 0)
(-0.0235261 0.0201963 0)
(-0.026525 0.0210427 0)
(-0.0296092 0.0217364 0)
(-0.0327588 0.0222757 0)
(-0.0359541 0.02266 0)
(-0.0391753 0.0228902 0)
(-0.0424028 0.0229683 0)
(-0.0456175 0.0228972 0)
(-0.0488006 0.0226805 0)
(-0.0519338 0.0223226 0)
(-0.0549992 0.0218287 0)
(-0.05798 0.0212042 0)
(-0.0608596 0.0204551 0)
(-0.0636226 0.0195876 0)
(-0.0662542 0.0186085 0)
(-0.0687403 0.0175246 0)
(-0.0710682 0.0163432 0)
(-0.0732256 0.0150715 0)
(-0.0752014 0.0137172 0)
(-0.0769855 0.0122879 0)
(-0.0785688 0.0107917 0)
(-0.0799432 0.00923645 0)
(-0.0811015 0.00763045 0)
(-0.0820379 0.005982 0)
(-0.0827474 0.00429956 0)
(-0.0832262 0.00259169 0)
(-0.0834716 0.000867109 0)
(-0.083482 -0.000865367 0)
(-0.083257 -0.00259681 0)
(-0.0827973 -0.0043182 0)
(-0.0821047 -0.0060204 0)
(-0.0811823 -0.00769425 0)
(-0.0800344 -0.00933049 0)
(-0.0786662 -0.0109199 0)
(-0.0770844 -0.0124531 0)
(-0.0752967 -0.0139209 0)
(-0.0733121 -0.0153141 0)
(-0.0711405 -0.0166237 0)
(-0.0687933 -0.0178406 0)
(-0.0662827 -0.0189563 0)
(-0.0636221 -0.0199622 0)
(-0.0608261 -0.0208503 0)
(-0.05791 -0.0216128 0)
(-0.0548903 -0.0222426 0)
(-0.0517844 -0.0227329 0)
(-0.0486102 -0.0230779 0)
(-0.0453865 -0.0232722 0)
(-0.0421329 -0.0233116 0)
(-0.0388693 -0.0231927 0)
(-0.035616 -0.0229133 0)
(-0.0323935 -0.0224725 0)
(-0.0292226 -0.0218707 0)
(-0.0261239 -0.0211099 0)
(-0.0231178 -0.0201939 0)
(-0.0202244 -0.0191286 0)
(-0.0174632 -0.0179218 0)
(-0.0148529 -0.016584 0)
(-0.0124114 -0.0151281 0)
(-0.0101552 -0.0135702 0)
(-0.00809983 -0.0119296 0)
(-0.00625883 -0.0102291 0)
(-0.004644 -0.00849562 0)
(-0.00326461 -0.00676011 0)
(-0.00212666 -0.00505798 0)
(-0.00123149 -0.00342919 0)
(-0.000572619 -0.001918 0)
(-0.000134528 -0.0005723 0)
(-0.000158402 0.000801558 0)
(-0.000671291 0.00256766 0)
(-0.00143431 0.00446149 0)
(-0.00246057 0.00643571 0)
(-0.00375288 0.00844675 0)
(-0.00530558 0.0104556 0)
(-0.00710835 0.0124279 0)
(-0.00914778 0.0143341 0)
(-0.0114084 0.016149 0)
(-0.0138733 0.0178514 0)
(-0.0165245 0.019424 0)
(-0.0193428 0.0208528 0)
(-0.0223088 0.0221267 0)
(-0.0254023 0.0232375 0)
(-0.0286027 0.0241792 0)
(-0.0318894 0.0249481 0)
(-0.0352413 0.0255423 0)
(-0.0386378 0.0259612 0)
(-0.0420581 0.026206 0)
(-0.0454818 0.0262789 0)
(-0.0488889 0.0261832 0)
(-0.0522597 0.025923 0)
(-0.0555753 0.0255035 0)
(-0.0588172 0.0249301 0)
(-0.0619678 0.0242091 0)
(-0.0650099 0.0233473 0)
(-0.0679275 0.0223517 0)
(-0.0707052 0.0212299 0)
(-0.0733286 0.0199896 0)
(-0.0757843 0.018639 0)
(-0.0780597 0.0171864 0)
(-0.0801434 0.0156403 0)
(-0.0820247 0.0140095 0)
(-0.0836943 0.0123028 0)
(-0.0851437 0.0105295 0)
(-0.0863657 0.00869871 0)
(-0.087354 0.0068199 0)
(-0.0881036 0.00490261 0)
(-0.0886104 0.00295654 0)
(-0.0888717 0.000991538 0)
(-0.0888858 -0.00098243 0)
(-0.0886521 -0.00295527 0)
(-0.0881715 -0.00491679 0)
(-0.0874457 -0.00685668 0)
(-0.0864779 -0.00876455 0)
(-0.0852725 -0.01063 0)
(-0.0838349 -0.0124425 0)
(-0.0821718 -0.0141915 0)