/*--------------------------------*- C++ -*----------------------------------*\
| =========                 |                                                 |
| \\      /  F ield         | OpenFOAM: The Open Source CFD Toolbox           |
|  \\    /   O peration     | Version:  4.1                                   |
|   \\  /    A nd           | Web:      www.OpenFOAM.org                      |
|    \\/     M anipulation  |                                                 |
\*---------------------------------------------------------------------------*/
FoamFile
{
    version     2.0;
    format      ascii;
    class       volVectorField;
    location    "1.75";
    object      U;
}
// * * * * * * * * * * * * * * * * * * * * * * * * * * * * * * * * * * * * * //

dimensions      [0 1 -1 0 0 0 0];

internalField   nonuniform List<vector> 
400
(
(7.94146e-05 -7.71555e-05 0)
(-0.000286937 0.000126157 0)
(-0.00141286 0.000282496 0)
(-0.00295627 0.000381803 0)
(-0.00473913 0.000414492 0)
(-0.00653621 0.000407465 0)
(-0.00821916 0.000369793 0)
(-0.00967116 0.000310158 0)
(-0.0108046 0.000229743 0)
(-0.0115353 0.000129211 0)
(-0.0117888 9.44581e-06 0)
(-0.0115054 -0.000124798 0)
(-0.0106553 -0.000263821 0)
(-0.00926281 -0.000390635 0)
(-0.00741717 -0.000484145 0)
(-0.00530683 -0.00051678 0)
(-0.00317686 -0.00047143 0)
(-0.00138394 -0.000325889 0)
(-0.00017736 -0.000118632 0)
(0.000121595 0.000112112 0)
(-0.000121498 0.000280455 0)
(-0.00161905 0.0015811 0)
(-0.00463683 0.00262875 0)
(-0.00848094 0.00326926 0)
(-0.0127824 0.00349036 0)
(-0.0170766 0.00339364 0)
(-0.0210637 0.00304928 0)
(-0.0244731 0.00251001 0)
(-0.0270956 0.00180084 0)
(-0.0287413 0.000939533 0)
(-0.0292518 -5.03917e-05 0)
(-0.0285105 -0.00112283 0)
(-0.0264721 -0.00219879 0)
(-0.0232071 -0.00315956 0)
(-0.0189244 -0.00385724 0)
(-0.0140285 -0.00412727 0)
(-0.00904043 -0.00384789 0)
(-0.00468027 -0.00295135 0)
(-0.00145963 -0.00160588 0)
(-5.93674e-05 -0.000155527 0)
(-0.000306545 0.00144606 0)
(-0.00290256 0.00464531 0)
(-0.00756736 0.0070409 0)
(-0.01327 0.00845018 0)
(-0.0195128 0.00890171 0)
(-0.0256785 0.00858988 0)
(-0.0313634 0.00767095 0)
(-0.0362004 0.00626364 0)
(-0.0399031 0.00443718 0)
(-0.0422145 0.00224562 0)
(-0.0429212 -0.000241995 0)
(-0.0418672 -0.00290702 0)
(-0.0389906 -0.00555744 0)
(-0.0343821 -0.0079156 0)
(-0.0283163 -0.0096389 0)
(-0.0213301 -0.0103588 0)
(-0.0141217 -0.00979735 0)
(-0.00766874 -0.00782888 0)
(-0.00268155 -0.00475783 0)
(-0.000214091 -0.00119757 0)
(-0.000462121 0.00320775 0)
(-0.0040128 0.00892688 0)
(-0.010109 0.0129545 0)
(-0.0173809 0.0152196 0)
(-0.025221 0.0158688 0)
(-0.0328985 0.0152223 0)
(-0.0399492 0.0135415 0)
(-0.0459492 0.0110213 0)
(-0.0505666 0.00778188 0)
(-0.0534974 0.00391779 0)
(-0.0544808 -0.000451171 0)
(-0.053313 -0.00512442 0)
(-0.0498902 -0.00977862 0)
(-0.0442821 -0.013946 0)
(-0.0367778 -0.0170429 0)
(-0.0279998 -0.0184393 0)
(-0.0187914 -0.0176428 0)
(-0.0103952 -0.014424 0)
(-0.00374753 -0.00919264 0)
(-0.000329668 -0.00278587 0)
(-0.000582209 0.00550893 0)
(-0.00495931 0.0143481 0)
(-0.0123396 0.0202876 0)
(-0.0210228 0.0234889 0)
(-0.0302971 0.0242997 0)
(-0.0393351 0.0232112 0)
(-0.0476381 0.0206135 0)
(-0.0547509 0.0167861 0)
(-0.0603156 0.0118991 0)
(-0.0639901 0.00608114 0)
(-0.0654594 -0.000505615 0)
(-0.064447 -0.00758331 0)
(-0.0607639 -0.0146904 0)
(-0.0544023 -0.0211413 0)
(-0.0456077 -0.0260547 0)
(-0.0350523 -0.0284538 0)
(-0.0237284 -0.0275325 0)
(-0.0132168 -0.0228738 0)
(-0.00477182 -0.0149647 0)
(-0.000410552 -0.00488553 0)
(-0.000690114 0.00825689 0)
(-0.00583629 0.0207627 0)
(-0.0144394 0.0288788 0)
(-0.0244775 0.033095 0)
(-0.0351409 0.0340436 0)
(-0.0455186 0.0324398 0)
(-0.0550972 0.0288297 0)
(-0.0634114 0.0235824 0)
(-0.0700931 0.0169083 0)
(-0.0747668 0.00894904 0)
(-0.0770518 -0.000117518 0)
(-0.0765662 -0.00996193 0)
(-0.0729788 -0.0199961 0)
(-0.0661275 -0.0292982 0)
(-0.0561319 -0.0366209 0)
(-0.0436566 -0.0405167 0)
(-0.029843 -0.0397021 0)
(-0.0167203 -0.0334271 0)
(-0.00601567 -0.0222179 0)
(-0.000499099 -0.0074933 0)
(-0.000798692 0.0114496 0)
(-0.00672754 0.0281735 0)
(-0.0165794 0.0387416 0)
(-0.028004 0.0440642 0)
(-0.0400975 0.0451473 0)
(-0.0518794 0.0429888 0)
(-0.0628425 0.038322 0)
(-0.0725341 0.0316091 0)
(-0.080595 0.0230843 0)
(-0.0866258 0.0128676 0)
(-0.090172 0.00110601 0)
(-0.090713 -0.0118699 0)
(-0.08771 -0.025383 0)
(-0.0807468 -0.0382732 0)
(-0.0696944 -0.0488519 0)
(-0.0551009 -0.0550291 0)
(-0.0382158 -0.0547836 0)
(-0.0216373 -0.0467771 0)
(-0.00780089 -0.0314773 0)
(-0.00063494 -0.010796 0)
(-0.000921949 0.0151088 0)
(-0.00771048 0.0366253 0)
(-0.0189094 0.0499274 0)
(-0.0318108 0.0564495 0)
(-0.0454178 0.0576751 0)
(-0.0586976 0.054953 0)
(-0.0711744 0.0492409 0)
(-0.0824391 0.0410969 0)
(-0.0921692 0.0307559 0)
(-0.0999626 0.0182685 0)
(-0.105297 0.00368192 0)
(-0.107491 -0.0127554 0)
(-0.105736 -0.0303549 0)
(-0.0992467 -0.0477557 0)
(-0.0874792 -0.0627669 0)
(-0.0706759 -0.0724455 0)
(-0.0500584 -0.0736441 0)
(-0.0288659 -0.0639911 0)
(-0.0105498 -0.0436306 0)
(-0.00087597 -0.015152 0)
(-0.00107288 0.0193092 0)
(-0.00885273 0.0462447 0)
(-0.0215489 0.0625653 0)
(-0.0360426 0.0703594 0)
(-0.0512394 0.0717251 0)
(-0.0660763 0.0684426 0)
(-0.0801402 0.0617408 0)
(-0.0931052 0.0522774 0)
(-0.104724 0.040263 0)
(-0.114632 0.0256207 0)
(-0.122264 0.00820856 0)
(-0.126787 -0.0119266 0)
(-0.127086 -0.0342158 0)
(-0.121907 -0.0572007 0)
(-0.110104 -0.0781832 0)
(-0.0913391 -0.0931586 0)
(-0.0665175 -0.0973313 0)
(-0.0394177 -0.0865671 0)
(-0.0148048 -0.0600547 0)
(-0.00130416 -0.0211815 0)
(-0.00126719 0.0241439 0)
(-0.0102278 0.0571779 0)
(-0.0246052 0.0767807 0)
(-0.0407924 0.0858632 0)
(-0.057585 0.0873226 0)
(-0.0739206 0.0834673 0)
(-0.0894838 0.0758559 0)
(-0.104079 0.0652524 0)
(-0.117582 0.0518204 0)
(-0.129717 0.0352956 0)
(-0.139939 0.0152461 0)
(-0.147311 -0.00863088 0)
(-0.150446 -0.0360727 0)
(-0.147587 -0.0657161 0)
(-0.136857 -0.0944663 0)
(-0.117018 -0.117145 0)
(-0.0881872 -0.126729 0)
(-0.0542148 -0.11625 0)
(-0.0212337 -0.0826221 0)
(-0.00204515 -0.0298346 0)
(-0.00153727 0.0297923 0)
(-0.0119382 0.0696621 0)
(-0.028189 0.092742 0)
(-0.0461015 0.102999 0)
(-0.0643415 0.104393 0)
(-0.0818931 0.0998726 0)
(-0.0985731 0.0913991 0)
(-0.114365 0.0798516 0)
(-0.129313 0.0653328 0)
(-0.143296 0.0473415 0)
(-0.155871 0.0250652 0)
(-0.166114 -0.00229758 0)
(-0.172502 -0.0350081 0)
(-0.172893 -0.072081 0)
(-0.164709 -0.11031 0)
(-0.145575 -0.143483 0)
(-0.114237 -0.161936 0)
(-0.0736019 -0.154553 0)
(-0.0305606 -0.113582 0)
(-0.00329066 -0.0424941 0)
(-0.00193176 0.0364264 0)
(-0.0141577 0.0838625 0)
(-0.0324702 0.11047 0)
(-0.052007 0.121575 0)
(-0.0712785 0.122565 0)
(-0.0894 0.117146 0)
(-0.106354 0.107761 0)
(-0.122354 0.0954097 0)
(-0.137647 0.0801351 0)
(-0.152327 0.0611776 0)
(-0.166158 0.0372988 0)
(-0.178402 0.00709849 0)
(-0.187658 -0.030396 0)
(-0.191715 -0.074904 0)
(-0.187602 -0.123589 0)
(-0.171833 -0.169767 0)
(-0.141324 -0.201265 0)
(-0.0965077 -0.201723 0)
(-0.0433384 -0.155043 0)
(-0.0053225 -0.0610165 0)
(-0.00257544 0.0445713 0)
(-0.0171767 0.100255 0)
(-0.0376485 0.130117 0)
(-0.0584442 0.14132 0)
(-0.0779009 0.141217 0)
(-0.0954238 0.134381 0)
(-0.1112 0.123807 0)
(-0.125727 0.110608 0)
(-0.139474 0.0947789 0)
(-0.1528 0.0753212 0)
(-0.165777 0.0506014 0)
(-0.178051 0.0186284 0)
(-0.188685 -0.0223567 0)
(-0.195876 -0.0730523 0)
(-0.196858 -0.131597 0)
(-0.187468 -0.191888 0)
(-0.162847 -0.240312 0)
(-0.119371 -0.255262 0)
(-0.0593866 -0.207922 0)
(-0.00851193 -0.0877086 0)
(-0.00365573 0.0545058 0)
(-0.021573 0.11877 0)
(-0.0441498 0.151128 0)
(-0.0653859 0.16117 0)
(-0.0834756 0.158929 0)
(-0.0984675 0.149886 0)
(-0.110828 0.137625 0)
(-0.12144 0.123333 0)
(-0.131 0.10697 0)
(-0.140168 0.0873686 0)
(-0.14939 0.0626218 0)
(-0.158853 0.0302973 0)
(-0.168388 -0.012045 0)
(-0.177071 -0.0661796 0)
(-0.183098 -0.131757 0)
(-0.182442 -0.204593 0)
(-0.169382 -0.271754 0)
(-0.135405 -0.308445 0)
(-0.0768017 -0.270073 0)
(-0.013221 -0.124773 0)
(-0.00563307 0.0682779 0)
(-0.0280639 0.140726 0)
(-0.0520174 0.173634 0)
(-0.0719276 0.180091 0)
(-0.0859945 0.173922 0)
(-0.0955378 0.161413 0)
(-0.101423 0.14667 0)
(-0.105059 0.130827 0)
(-0.10738 0.113787 0)
(-0.109348 0.0942867 0)
(-0.111782 0.0703192 0)
(-0.115448 0.0392633 0)
(-0.12107 -0.00172772 0)
(-0.12887 -0.0553382 0)
(-0.13863 -0.122934 0)
(-0.147405 -0.203377 0)
(-0.150408 -0.287079 0)
(-0.134849 -0.350534 0)
(-0.0906725 -0.334626 0)
(-0.0195182 -0.17357 0)
(-0.00922294 0.0854696 0)
(-0.0384806 0.164049 0)
(-0.0616434 0.194318 0)
(-0.0765184 0.194155 0)
(-0.0817525 0.182194 0)
(-0.0812745 0.165176 0)
(-0.0764972 0.147442 0)
(-0.0695341 0.129866 0)
(-0.0614938 0.112224 0)
(-0.0535696 0.0932254 0)
(-0.0468357 0.0709366 0)
(-0.0424951 0.0428365 0)
(-0.0420352 0.00604455 0)
(-0.0467374 -0.0425973 0)
(-0.058212 -0.105859 0)
(-0.07527 -0.185939 0)
(-0.0962539 -0.278795 0)
(-0.106264 -0.368157 0)
(-0.0923105 -0.388128 0)
(-0.0264575 -0.23149 0)
(-0.0154025 0.115501 0)
(-0.051664 0.192675 0)
(-0.0673244 0.212656 0)
(-0.069546 0.199922 0)
(-0.0584287 0.179318 0)
(-0.0419383 0.156774 0)
(-0.0218547 0.135975 0)
(-0.000936519 0.117076 0)
(0.0197608 0.0994844 0)
(0.0390259 0.0818641 0)
(0.0557772 0.0624445 0)
(0.0686651 0.0390248 0)
(0.07579 0.00902695 0)
(0.0751806 -0.0306167 0)
(0.0636572 -0.083361 0)
(0.04049 -0.153859 0)
(0.00249121 -0.24424 0)
(-0.0365621 -0.35058 0)
(-0.0679785 -0.413789 0)
(-0.0304444 -0.292395 0)
(-0.025565 0.14512 0)
(-0.0677414 0.209865 0)
(-0.0554811 0.211122 0)
(-0.0293423 0.183525 0)
(0.0103083 0.155304 0)
(0.0502269 0.129638 0)
(0.0897827 0.108212 0)
(0.126428 0.0902623 0)
(0.159866 0.0747098 0)
(0.189416 0.060243 0)
(0.214426 0.0453577 0)
(0.233809 0.0283616 0)
(0.245731 0.0072641 0)
(0.247965 -0.0203177 0)
(0.236464 -0.0575704 0)
(0.208798 -0.10954 0)
(0.15683 -0.182766 0)
(0.0900467 -0.286504 0)
(0.00237717 -0.384379 0)
(-0.0197749 -0.330393 0)
(-0.018031 0.217366 0)
(-0.0179322 0.217808 0)
(0.0575035 0.180972 0)
(0.126217 0.136266 0)
(0.197382 0.103738 0)
(0.258305 0.0800179 0)
(0.311861 0.0625094 0)
(0.357514 0.0493653 0)
(0.396418 0.0389763 0)
(0.429008 0.0301427 0)
(0.455421 0.0217471 0)
(0.47517 0.0127344 0)
(0.486955 0.00189758 0)
(0.488759 -0.0120947 0)
(0.476823 -0.0314816 0)
(0.447601 -0.0597748 0)
(0.390573 -0.1049 0)
(0.306869 -0.184514 0)
(0.163296 -0.294615 0)
(0.0408721 -0.333332 0)
(0.211947 0.130498 0)
(0.299545 0.101966 0)
(0.454414 0.0678587 0)
(0.545945 0.0439471 0)
(0.618441 0.0281457 0)
(0.670881 0.018607 0)
(0.710741 0.0125719 0)
(0.741279 0.00871664 0)
(0.765017 0.00609661 0)
(0.783394 0.00415678 0)
(0.797146 0.0024969 0)
(0.806349 0.000822531 0)
(0.810433 -0.00116725 0)
(0.808122 -0.00372218 0)
(0.797087 -0.00743302 0)
(0.773797 -0.0128894 0)
(0.729649 -0.0225325 0)
(0.655942 -0.0408198 0)
(0.496711 -0.0746926 0)
(0.288066 -0.136551 0)
)
;

boundaryField
{
    movingWall
    {
        type            fixedValue;
        value           uniform (1 0 0);
    }
    fixedWalls
    {
        type            noSlip;
    }
    frontAndBack
    {
        type            empty;
    }
}


// ************************************************************************* //
