/*--------------------------------*- C++ -*----------------------------------*\
| =========                 |                                                 |
| \\      /  F ield         | OpenFOAM: The Open Source CFD Toolbox           |
|  \\    /   O peration     | Version:  4.1                                   |
|   \\  /    A nd           | Web:      www.OpenFOAM.org                      |
|    \\/     M anipulation  |                                                 |
\*---------------------------------------------------------------------------*/
FoamFile
{
    version     2.0;
    format      ascii;
    class       volVectorField;
    location    "0.0443";
    object      U;
}
// * * * * * * * * * * * * * * * * * * * * * * * * * * * * * * * * * * * * * //

dimensions      [0 1 -1 0 0 0 0];

internalField   nonuniform List<vector> 
441
(
(0.00333211 -0.00456778 0)
(0.00845103 -0.00259547 0)
(-0.00064889 -2.18662e-165 0)
(0.00168344 -2.72955e-266 0)
(-0.00892351 -0.00673434 0)
(-0.00168344 -2.68637e-232 0)
(-1.08311e-202 -4.45796e-203 0)
(-1.11432e-203 -5.67105e-228 0)
(-1.46336e-212 -2.39559e-213 0)
(-0.00517634 7.80141e-266 0)
(-0.062187 0.0207076 0)
(-0.0787721 0.0110707 0)
(-0.0898793 0.00530372 0)
(-0.0810075 0.000793383 0)
(-0.0693273 -0.000934041 0)
(-0.0494934 -0.00225415 0)
(-0.0317983 -0.00177993 0)
(-0.0145554 -0.00165237 0)
(-0.0025976 0.000144619 0)
(0.00151905 0.000766679 0)
(0.00381218 0.00240219 0)
(0.00317371 -0.00701547 0)
(-0.00239956 0.00654943 0)
(-0.0271734 0.00770086 0)
(-0.0557225 0.0106309 0)
(-0.0970949 0.00934254 0)
(-0.134267 -0.00426418 0)
(-0.168132 -0.00043643 0)
(-0.199552 0.00125574 0)
(-0.226737 0.0108213 0)
(-0.254224 0.0551373 0)
(-0.273143 0.0511099 0)
(-0.26834 0.0169248 0)
(-0.258177 -0.00350062 0)
(-0.226661 -0.0220069 0)
(-0.189864 -0.0306295 0)
(-0.141368 -0.0364046 0)
(-0.0962548 -0.0329307 0)
(-0.0533987 -0.0287207 0)
(-0.0218613 -0.0157549 0)
(-0.00524985 -0.00791928 0)
(0.00391398 0.00314117 0)
(0.00646643 -0.00589343 0)
(-0.00583193 0.0273662 0)
(-0.0504242 0.0519518 0)
(-0.108425 0.06776 0)
(-0.177053 0.070782 0)
(-0.246825 0.0674102 0)
(-0.319511 0.0629624 0)
(-0.375697 0.0566527 0)
(-0.430405 0.0525534 0)
(-0.454877 0.0503613 0)
(-0.449019 0.0356711 0)
(-0.433962 -0.00283548 0)
(-0.406415 -0.0357407 0)
(-0.3574 -0.0673711 0)
(-0.299263 -0.0853272 0)
(-0.226527 -0.096132 0)
(-0.157603 -0.0886397 0)
(-0.0911247 -0.0765176 0)
(-0.0414466 -0.0469472 0)
(-0.0113694 -0.0254064 0)
(0.00521893 0.00152989 0)
(0.00590113 -0.00786773 0)
(-0.013538 0.0650337 0)
(-0.0841543 0.110369 0)
(-0.165146 0.139358 0)
(-0.258554 0.148071 0)
(-0.350313 0.14066 0)
(-0.438339 0.129815 0)
(-0.512027 0.112881 0)
(-0.57124 0.0919489 0)
(-0.604348 0.071343 0)
(-0.609048 0.0299543 0)
(-0.589303 -0.0267071 0)
(-0.551623 -0.0801692 0)
(-0.48651 -0.13021 0)
(-0.408947 -0.161289 0)
(-0.312305 -0.179435 0)
(-0.219764 -0.167774 0)
(-0.12873 -0.146432 0)
(-0.0604604 -0.0946997 0)
(-0.0162575 -0.0559201 0)
(0.007079 -0.0026483 0)
(6.18705e-165 0.00147528 0)
(-0.0197699 0.117007 0)
(-0.118856 0.202826 0)
(-0.217774 0.240898 0)
(-0.333757 0.255013 0)
(-0.443964 0.245612 0)
(-0.551398 0.223622 0)
(-0.639713 0.188668 0)
(-0.711743 0.144338 0)
(-0.752358 0.0887995 0)
(-0.76302 0.0210447 0)
(-0.744209 -0.0600281 0)
(-0.700518 -0.13779 0)
(-0.622982 -0.210334 0)
(-0.527662 -0.25846 0)
(-0.405703 -0.28607 0)
(-0.287837 -0.27077 0)
(-0.166847 -0.236818 0)
(-0.0784628 -0.157784 0)
(-0.0158785 -0.0937363 0)
(0.0135776 -0.00681488 0)
(-5.06e-266 0.00505612 0)
(-0.0764879 0.188204 0)
(-0.163906 0.306644 0)
(-0.280927 0.355967 0)
(-0.405583 0.374212 0)
(-0.531474 0.359331 0)
(-0.65076 0.32615 0)
(-0.753951 0.273476 0)
(-0.837799 0.205347 0)
(-0.892355 0.121896 0)
(-0.917085 0.0220605 0)
(-0.905158 -0.0901524 0)
(-0.862426 -0.201144 0)
(-0.776084 -0.304515 0)
(-0.664835 -0.378072 0)
(-0.515944 -0.421468 0)
(-0.368819 -0.405579 0)
(-0.212205 -0.358712 0)
(-0.0989318 -0.243823 0)
(-0.0139339 -0.15104 0)
(0.0159964 -0.00383578 0)
(-0.0202245 0.0810564 0)
(-0.105568 0.277608 0)
(-0.205777 0.407697 0)
(-0.333421 0.480953 0)
(-0.473085 0.504933 0)
(-0.613537 0.489558 0)
(-0.749262 0.445489 0)
(-0.868936 0.37495 0)
(-0.970347 0.282617 0)
(-1.04229 0.167886 0)
(-1.08403 0.0343357 0)
(-1.08472 -0.114953 0)
(-1.04848 -0.265892 0)
(-0.957993 -0.408699 0)
(-0.83347 -0.517122 0)
(-0.655188 -0.583645 0)
(-0.475443 -0.572262 0)
(-0.270818 -0.508835 0)
(-0.130841 -0.352983 0)
(-0.00152264 -0.210361 0)
(5.67992e-266 -0.00399909 0)
(-0.0146469 0.133154 0)
(-0.0997126 0.37485 0)
(-0.22443 0.535142 0)
(-0.369835 0.624095 0)
(-0.526926 0.654701 0)
(-0.684331 0.635904 0)
(-0.83674 0.581963 0)
(-0.975638 0.494534 0)
(-1.09737 0.379133 0)
(-1.19224 0.235075 0)
(-1.25738 0.0648679 0)
(-1.2782 -0.126704 0)
(-1.25651 -0.327401 0)
(-1.16902 -0.521532 0)
(-1.0357 -0.68015 0)
(-0.829225 -0.78317 0)
(-0.611531 -0.788256 0)
(-0.352807 -0.709073 0)
(-0.171417 -0.508686 0)
(-0.00236064 -0.290905 0)
(2.24691e-24 -1.29758e-24 0)
(-0.0128711 0.192234 0)
(-0.103405 0.48567 0)
(-0.244445 0.676455 0)
(-0.404792 0.781821 0)
(-0.578586 0.818371 0)
(-0.752045 0.798014 0)
(-0.922083 0.736116 0)
(-1.08101 0.634625 0)
(-1.22555 0.49909 0)
(-1.34661 0.327353 0)
(-1.43955 0.120865 0)
(-1.48749 -0.11631 0)
(-1.48853 -0.373738 0)
(-1.41328 -0.630627 0)
(-1.2792 -0.854782 0)
(-1.04851 -1.01049 0)
(-0.792015 -1.04509 0)
(-0.468478 -0.953481 0)
(-0.23396 -0.69637 0)
(-0.00419324 -0.388634 0)
(9.25514e-77 -5.61728e-25 0)
(-0.0113686 0.250141 0)
(-0.103755 0.608095 0)
(-0.256936 0.837415 0)
(-0.429244 0.958936 0)
(-0.616684 1.00257 0)
(-0.80406 0.979524 0)
(-0.989168 0.911335 0)
(-1.16685 0.797715 0)
(-1.33326 0.644963 0)
(-1.48163 0.448416 0)
(-1.60511 0.205999 0)
(-1.68595 -0.0789062 0)
(-1.71807 -0.401132 0)
(-1.66636 -0.733352 0)
(-1.54309 -1.0442 0)
(-1.2985 -1.27574 0)
(-1.00623 -1.36674 0)
(-0.612823 -1.27638 0)
(-0.311481 -0.967733 0)
(-0.00568314 -0.538742 0)
(2.59007e-164 -2.31378e-77 0)
(-0.0119593 0.3042 0)
(-0.109549 0.729567 0)
(-0.274199 0.999861 0)
(-0.456494 1.13949 0)
(-0.653686 1.19171 0)
(-0.850452 1.16867 0)
(-1.04493 1.09798 0)
(-1.23576 0.977376 0)
(-1.4181 0.81351 0)
(-1.58956 0.598377 0)
(-1.7407 0.325678 0)
(-1.85638 -0.00381662 0)
(-1.92522 -0.391605 0)
(-1.90974 -0.806543 0)
(-1.81356 -1.21959 0)
(-1.57462 -1.55074 0)
(-1.26213 -1.72602 0)
(-0.806492 -1.6554 0)
(-0.432154 -1.29264 0)
(-0.0702502 -0.711748 0)
(1.64708e-265 0.0122461 0)
(-0.0133426 0.372669 0)
(-0.113688 0.872514 0)
(-0.285435 1.18597 0)
(-0.471992 1.33922 0)
(-0.671505 1.3978 0)
(-0.869504 1.37081 0)
(-1.06358 1.29733 0)
(-1.25723 1.17044 0)
(-1.44417 0.998863 0)
(-1.62802 0.770183 0)
(-1.79748 0.472639 0)
(-1.9428 0.104392 0)
(-2.04904 -0.347626 0)
(-2.0794 -0.847429 0)
(-2.02835 -1.37874 0)
(-1.82133 -1.83358 0)
(-1.51204 -2.13409 0)
(-1.00574 -2.11963 0)
(-0.53829 -1.69858 0)
(-0.070172 -0.989237 0)
(0.0489844 -0.0662542 0)
(-0.0176189 0.426931 0)
(-0.126078 0.998746 0)
(-0.308736 1.35531 0)
(-0.49777 1.52229 0)
(-0.691446 1.58742 0)
(-0.880007 1.55816 0)
(-1.05789 1.48469 0)
(-1.2378 1.35632 0)
(-1.40935 1.18385 0)
(-1.58687 0.950925 0)
(-1.75521 0.640828 0)
(-1.91716 0.24783 0)
(-2.05212 -0.252908 0)
(-2.13465 -0.826839 0)
(-2.14528 -1.47306 0)
(-2.00441 -2.06907 0)
(-1.74282 -2.53568 0)
(-1.206 -2.63743 0)
(-0.682165 -2.22161 0)
(0.0362922 -1.30537 0)
(2.2683e-231 -0.0122461 0)
(-0.0232543 0.519257 0)
(-0.137591 1.1667 0)
(-0.324932 1.56149 0)
(-0.507322 1.72301 0)
(-0.682542 1.78311 0)
(-0.846885 1.7375 0)
(-0.990806 1.65692 0)
(-1.13667 1.52174 0)
(-1.26969 1.34838 0)
(-1.41555 1.11565 0)
(-1.55675 0.802375 0)
(-1.7107 0.400798 0)
(-1.85612 -0.130865 0)
(-1.98372 -0.755245 0)
(-2.06848 -1.50893 0)
(-2.03359 -2.24075 0)
(-1.88265 -2.93242 0)
(-1.41666 -3.19807 0)
(-0.879955 -2.93578 0)
(-0.00376466 -1.70661 0)
(5.5915e-202 4.47602e-184 0)
(-0.0401411 0.580643 0)
(-0.17688 1.29433 0)
(-0.37787 1.72108 0)
(-0.55117 1.87432 0)
(-0.68964 1.92525 0)
(-0.810316 1.86286 0)
(-0.891709 1.77403 0)
(-0.97663 1.63374 0)
(-1.03907 1.46292 0)
(-1.12343 1.23832 0)
(-1.20348 0.936832 0)
(-1.32136 0.549203 0)
(-1.44576 0.0227511 0)
(-1.60733 -0.610979 0)
(-1.75588 -1.41593 0)
(-1.87069 -2.25223 0)
(-1.87555 -3.13762 0)
(-1.60139 -3.64931 0)
(-1.12486 -3.61234 0)
(-0.0104719 -2.21438 0)
(1.79041e-183 5.37622e-185 0)
(-0.0593164 0.744102 0)
(-0.216353 1.50872 0)
(-0.416575 1.94505 0)
(-0.563398 2.03607 0)
(-0.64465 2.04925 0)
(-0.699777 1.94016 0)
(-0.696434 1.82732 0)
(-0.696117 1.66969 0)
(-0.663072 1.49671 0)
(-0.657419 1.28107 0)
(-0.646381 0.999815 0)
(-0.691663 0.644929 0)
(-0.759392 0.152926 0)
(-0.911636 -0.442134 0)
(-1.1012 -1.24908 0)
(-1.35098 -2.1179 0)
(-1.57905 -3.20729 0)
(-1.61921 -3.95628 0)
(-1.44534 -4.54518 0)
(-0.457232 -2.87788 0)
(4.34355e-254 -4.47602e-184 0)
(-0.124793 0.842092 0)
(-0.349103 1.63839 0)
(-0.542835 2.06272 0)
(-0.644285 2.09258 0)
(-0.612278 2.06072 0)
(-0.561019 1.90963 0)
(-0.423357 1.77122 0)
(-0.303026 1.59927 0)
(-0.140059 1.42559 0)
(-0.0199545 1.22379 0)
(0.108607 0.972926 0)
(0.154719 0.667777 0)
(0.176188 0.246016 0)
(0.0492176 -0.260053 0)
(-0.127343 -0.968705 0)
(-0.539711 -1.76324 0)
(-0.937542 -2.84352 0)
(-1.60216 -3.78234 0)
(-1.7205 -4.68689 0)
(-2.05559 -3.73584 0)
(-2.52441e-264 -0.212289 0)
(-0.179543 1.23915 0)
(-0.437013 1.93101 0)
(-0.557899 2.2624 0)
(-0.553212 2.10579 0)
(-0.363423 1.97983 0)
(-0.16549 1.751 0)
(0.128997 1.57599 0)
(0.389134 1.38659 0)
(0.69012 1.21572 0)
(0.933003 1.03408 0)
(1.18127 0.824346 0)
(1.33157 0.582024 0)
(1.45315 0.254782 0)
(1.40287 -0.129257 0)
(1.28417 -0.670758 0)
(0.877612 -1.29093 0)
(0.382927 -2.1748 0)
(-0.494241 -3.12927 0)
(-1.16824 -4.17955 0)
(-1.85673 -4.45469 0)
(-0.849157 -2.29246 0)
(-0.399429 1.42412 0)
(-0.729683 1.98801 0)
(-0.541494 2.17304 0)
(-0.288592 1.88138 0)
(0.231304 1.67418 0)
(0.655011 1.40962 0)
(1.16797 1.21881 0)
(1.58551 1.03633 0)
(2.02635 0.883643 0)
(2.3748 0.735466 0)
(2.71853 0.576402 0)
(2.94039 0.404239 0)
(3.13609 0.177831 0)
(3.13159 -0.0754828 0)
(3.08139 -0.439583 0)
(2.68687 -0.839331 0)
(2.24497 -1.47101 0)
(1.25621 -2.20002 0)
(0.385284 -3.32692 0)
(-0.737209 -3.97818 0)
(-0.69697 -2.95852 0)
(-0.254656 2.43009 0)
(-0.0950416 2.06774 0)
(0.690652 1.87201 0)
(1.3266 1.32556 0)
(2.1221 1.05705 0)
(2.72257 0.808125 0)
(3.34615 0.652152 0)
(3.82905 0.524455 0)
(4.30221 0.427077 0)
(4.66405 0.341579 0)
(5.00726 0.256892 0)
(5.22642 0.169431 0)
(5.41896 0.059891 0)
(5.42525 -0.0619389 0)
(5.39888 -0.235776 0)
(5.06102 -0.432544 0)
(4.69606 -0.774333 0)
(3.78523 -1.2365 0)
(2.83713 -2.25229 0)
(1.07897 -3.32672 0)
(-0.0438435 -3.8007 0)
(1.66918 1.67146 0)
(2.71167 0.976942 0)
(4.5569 0.749794 0)
(5.39477 0.423496 0)
(6.25496 0.284442 0)
(6.75317 0.174981 0)
(7.21792 0.117881 0)
(7.52628 0.0779326 0)
(7.81096 0.0525814 0)
(8.00439 0.0335269 0)
(8.18273 0.0169087 0)
(8.27498 0.00118674 0)
(8.356 -0.0188255 0)
(8.31184 -0.0393723 0)
(8.26573 -0.0752918 0)
(7.99355 -0.1097 0)
(7.74801 -0.200823 0)
(6.99981 -0.295094 0)
(6.26646 -0.628358 0)
(4.04819 -1.00048 0)
(2.00889 -1.82194 0)
)
;

boundaryField
{
    movingWall
    {
        type            fixedValue;
        value           uniform (10 0 0);
    }
    fixedWalls
    {
        type            noSlip;
    }
    frontAndBack
    {
        type            empty;
    }
}


// ************************************************************************* //
