/*--------------------------------*- C++ -*----------------------------------*\
| =========                 |                                                 |
| \\      /  F ield         | OpenFOAM: The Open Source CFD Toolbox           |
|  \\    /   O peration     | Version:  4.1                                   |
|   \\  /    A nd           | Web:      www.OpenFOAM.org                      |
|    \\/     M anipulation  |                                                 |
\*---------------------------------------------------------------------------*/
FoamFile
{
    version     2.0;
    format      ascii;
    class       volVectorField;
    location    "0.0587";
    object      U;
}
// * * * * * * * * * * * * * * * * * * * * * * * * * * * * * * * * * * * * * //

dimensions      [0 1 -1 0 0 0 0];

internalField   nonuniform List<vector> 
441
(
(0.0034599 -0.00463285 0)
(0.00890869 -0.00255335 0)
(-0.000638346 -2.18026e-165 0)
(0.00179045 -2.96624e-266 0)
(-0.00858525 -0.00716239 0)
(-0.00179045 -2.82629e-232 0)
(-1.09768e-202 -4.93914e-203 0)
(-1.23463e-203 -6.40279e-228 0)
(-1.56944e-212 -2.75936e-213 0)
(-0.00558466 8.3433e-266 0)
(-0.0678679 0.0223408 0)
(-0.085749 0.0118284 0)
(-0.0973773 0.00555503 0)
(-0.0868904 0.000610703 0)
(-0.0730859 -0.00126851 0)
(-0.0505922 -0.00262591 0)
(-0.0308211 -0.00198084 0)
(-0.0123639 -0.00166279 0)
(-0.000307227 0.000389977 0)
(0.00279761 0.00108041 0)
(0.00415905 0.00266126 0)
(0.003414 -0.00754289 0)
(-0.00175707 0.00660514 0)
(-0.027005 0.00794836 0)
(-0.0566908 0.0105561 0)
(-0.100391 0.0099372 0)
(-0.140697 -0.00376591 0)
(-0.178133 -0.000297309 0)
(-0.213629 0.00143247 0)
(-0.244922 0.0118733 0)
(-0.27664 0.0603157 0)
(-0.298587 0.0558783 0)
(-0.293888 0.0180407 0)
(-0.282088 -0.00491101 0)
(-0.246106 -0.0256218 0)
(-0.203695 -0.0351325 0)
(-0.148803 -0.0408626 0)
(-0.0983519 -0.0360387 0)
(-0.0519116 -0.0300817 0)
(-0.0191024 -0.0150576 0)
(-0.00345479 -0.00628718 0)
(0.00439302 0.00451489 0)
(0.00688534 -0.00681834 0)
(-0.00547243 0.0274799 0)
(-0.0515083 0.0535635 0)
(-0.112664 0.0710648 0)
(-0.186296 0.0757576 0)
(-0.261952 0.0739053 0)
(-0.342249 0.070364 0)
(-0.406274 0.064592 0)
(-0.469212 0.0605941 0)
(-0.49929 0.0578838 0)
(-0.495184 0.0404764 0)
(-0.47965 -0.00353213 0)
(-0.448664 -0.0415635 0)
(-0.392842 -0.0776169 0)
(-0.326013 -0.097632 0)
(-0.243451 -0.108256 0)
(-0.165898 -0.0977194 0)
(-0.0929991 -0.0814167 0)
(-0.0401065 -0.0469823 0)
(-0.0099143 -0.0228422 0)
(0.00577649 0.00402866 0)
(0.00603314 -0.00921802 0)
(-0.0145681 0.0666573 0)
(-0.0889187 0.11517 0)
(-0.175499 0.147582 0)
(-0.27661 0.159578 0)
(-0.377405 0.154776 0)
(-0.475767 0.145569 0)
(-0.559991 0.129209 0)
(-0.629041 0.107083 0)
(-0.669465 0.0837434 0)
(-0.677655 0.0359943 0)
(-0.657441 -0.0295586 0)
(-0.6153 -0.0918444 0)
(-0.541299 -0.149396 0)
(-0.45215 -0.184328 0)
(-0.342106 -0.202444 0)
(-0.237265 -0.185926 0)
(-0.136306 -0.157505 0)
(-0.0621295 -0.0972902 0)
(-0.0160055 -0.0535403 0)
(0.00755201 0.000752383 0)
(6.44669e-165 0.00150828 0)
(-0.0217082 0.121999 0)
(-0.127493 0.213737 0)
(-0.234638 0.25741 0)
(-0.361436 0.276649 0)
(-0.483704 0.271355 0)
(-0.604655 0.25177 0)
(-0.706321 0.216872 0)
(-0.79075 0.169436 0)
(-0.840608 0.107161 0)
(-0.856227 0.0288718 0)
(-0.837521 -0.0656483 0)
(-0.788764 -0.156943 0)
(-0.700584 -0.241099 0)
(-0.590804 -0.295738 0)
(-0.451504 -0.323986 0)
(-0.317046 -0.302043 0)
(-0.181672 -0.257636 0)
(-0.0839608 -0.165597 0)
(-0.0169527 -0.0933721 0)
(0.0141316 -0.00361726 0)
(-5.24219e-266 0.00533017 0)
(-0.0816196 0.198644 0)
(-0.177246 0.326258 0)
(-0.30523 0.383294 0)
(-0.443212 0.408559 0)
(-0.58407 0.399044 0)
(-0.719552 0.368798 0)
(-0.83882 0.315553 0)
(-0.937486 0.242193 0)
(-1.00366 0.148461 0)
(-1.03553 0.0331917 0)
(-1.02486 -0.0980151 0)
(-0.977198 -0.228523 0)
(-0.878939 -0.348913 0)
(-0.750709 -0.43293 0)
(-0.580452 -0.478583 0)
(-0.412078 -0.454696 0)
(-0.235867 -0.393658 0)
(-0.109253 -0.260075 0)
(-0.017166 -0.15481 0)
(0.0160988 -0.00083621 0)
(-0.0213207 0.0862448 0)
(-0.113375 0.295837 0)
(-0.223543 0.437739 0)
(-0.364176 0.521656 0)
(-0.519472 0.554762 0)
(-0.677319 0.546342 0)
(-0.831814 0.505798 0)
(-0.970136 0.433947 0)
(-1.08896 0.334092 0)
(-1.17495 0.204969 0)
(-1.22603 0.0505543 0)
(-1.22951 -0.124283 0)
(-1.18904 -0.301865 0)
(-1.08611 -0.468472 0)
(-0.942808 -0.592749 0)
(-0.739594 -0.664383 0)
(-0.53402 -0.644355 0)
(-0.303775 -0.562802 0)
(-0.145717 -0.381108 0)
(-0.00450238 -0.220519 0)
(5.83305e-266 -0.00402469 0)
(-0.0156149 0.142389 0)
(-0.108129 0.401993 0)
(-0.244707 0.577656 0)
(-0.404766 0.68002 0)
(-0.579186 0.722 0)
(-0.755729 0.711718 0)
(-0.928663 0.661965 0)
(-1.08808 0.572599 0)
(-1.22914 0.447427 0)
(-1.34006 0.28498 0)
(-1.41652 0.088152 0)
(-1.44181 -0.13606 0)
(-1.41721 -0.371428 0)
(-1.3178 -0.597304 0)
(-1.16538 -0.778735 0)
(-0.931865 -0.891356 0)
(-0.684994 -0.888843 0)
(-0.394794 -0.788094 0)
(-0.190559 -0.554789 0)
(-0.00302467 -0.309864 0)
(2.43301e-24 -1.16753e-24 0)
(-0.0138459 0.206605 0)
(-0.112107 0.523147 0)
(-0.265521 0.73288 0)
(-0.440961 0.854387 0)
(-0.632508 0.904522 0)
(-0.825504 0.894313 0)
(-1.01649 0.837326 0)
(-1.19641 0.733334 0)
(-1.36086 0.585851 0)
(-1.49871 0.391726 0)
(-1.60398 0.152877 0)
(-1.65769 -0.124137 0)
(-1.6575 -0.424484 0)
(-1.57221 -0.721565 0)
(-1.42087 -0.976528 0)
(-1.16395 -1.1478 0)
(-0.877734 -1.1778 0)
(-0.519444 -1.06228 0)
(-0.258164 -0.765404 0)
(-0.00461663 -0.418559 0)
(9.97204e-77 -6.08253e-25 0)
(-0.012185 0.268977 0)
(-0.111518 0.655357 0)
(-0.276134 0.907305 0)
(-0.462407 1.04763 0)
(-0.666307 1.10704 0)
(-0.871769 1.09571 0)
(-1.07621 1.03316 0)
(-1.2732 0.916563 0)
(-1.45791 0.749888 0)
(-1.62177 0.527369 0)
(-1.75693 0.247407 0)
(-1.84389 -0.0837603 0)
(-1.87649 -0.456332 0)
(-1.81788 -0.836552 0)
(-1.68173 -1.18621 0)
(-1.41546 -1.44029 0)
(-1.09708 -1.53183 0)
(-0.669542 -1.41763 0)
(-0.340027 -1.06411 0)
(-0.00641025 -0.582815 0)
(2.78352e-164 -2.49301e-77 0)
(-0.0125437 0.327005 0)
(-0.115283 0.785386 0)
(-0.288719 1.08156 0)
(-0.481973 1.24237 0)
(-0.692205 1.31226 0)
(-0.903292 1.30224 0)
(-1.11295 1.23769 0)
(-1.31871 1.11357 0)
(-1.515 0.933983 0)
(-1.69808 0.689864 0)
(-1.85806 0.375522 0)
(-1.97878 -0.00504962 0)
(-2.04938 -0.448611 0)
(-2.0311 -0.917297 0)
(-1.92881 -1.37572 0)
(-1.67686 -1.73616 0)
(-1.34701 -1.91887 0)
(-0.863995 -1.82725 0)
(-0.463911 -1.41715 0)
(-0.0758169 -0.771196 0)
(1.73441e-265 0.0128679 0)
(-0.0135369 0.397751 0)
(-0.116074 0.933704 0)
(-0.292233 1.27553 0)
(-0.484793 1.45184 0)
(-0.691739 1.52954 0)
(-0.897907 1.51641 0)
(-1.10043 1.4492 0)
(-1.30197 1.31811 0)
(-1.49582 1.12934 0)
(-1.68498 0.869621 0)
(-1.85836 0.528044 0)
(-2.00616 0.106418 0)
(-2.11463 -0.403624 0)
(-2.1465 -0.959461 0)
(-2.09737 -1.53953 0)
(-1.88894 -2.02865 0)
(-1.57521 -2.34368 0)
(-1.0535 -2.31477 0)
(-0.566826 -1.84658 0)
(-0.0736029 -1.06601 0)
(0.0514715 -0.0715671 0)
(-0.017318 0.452268 0)
(-0.124145 1.06115 0)
(-0.305469 1.44739 0)
(-0.493939 1.63858 0)
(-0.68759 1.72355 0)
(-0.876195 1.70833 0)
(-1.05375 1.64075 0)
(-1.23253 1.50734 0)
(-1.40219 1.31662 0)
(-1.5772 1.05176 0)
(-1.74334 0.697279 0)
(-1.90422 0.251495 0)
(-2.04103 -0.305846 0)
(-2.1287 -0.933926 0)
(-2.14911 -1.62819 0)
(-2.01907 -2.26021 0)
(-1.76881 -2.74797 0)
(-1.23252 -2.84436 0)
(-0.703356 -2.39055 0)
(0.0395575 -1.39635 0)
(2.37572e-231 -0.0128679 0)
(-0.0223835 0.542127 0)
(-0.130798 1.22491 0)
(-0.31033 1.64917 0)
(-0.484687 1.83505 0)
(-0.651433 1.91491 0)
(-0.806742 1.88288 0)
(-0.940786 1.80744 0)
(-1.07605 1.66654 0)
(-1.19829 1.47465 0)
(-1.33407 1.21062 0)
(-1.4673 0.854817 0)
(-1.61684 0.403938 0)
(-1.76334 -0.179449 0)
(-1.89863 -0.852002 0)
(-1.99901 -1.64849 0)
(-1.98573 -2.41336 0)
(-1.86059 -3.12928 0)
(-1.4149 -3.39833 0)
(-0.889964 -3.1128 0)
(-0.00341053 -1.8061 0)
(5.73292e-202 4.54571e-184 0)
(-0.0387752 0.598419 0)
(-0.16572 1.34303 0)
(-0.352833 1.79744 0)
(-0.510949 1.97419 0)
(-0.632789 2.04402 0)
(-0.735855 1.99428 0)
(-0.798639 1.90981 0)
(-0.864788 1.76359 0)
(-0.909235 1.5751 0)
(-0.977962 1.32143 0)
(-1.04622 0.98128 0)
(-1.15787 0.549952 0)
(-1.28298 -0.0209689 0)
(-1.45359 -0.694333 0)
(-1.62051 -1.53325 0)
(-1.76291 -2.39548 0)
(-1.80309 -3.30282 0)
(-1.56497 -3.82384 0)
(-1.11831 -3.77905 0)
(-0.0110712 -2.3162 0)
(1.81828e-183 -4.68395e-185 0)
(-0.0576698 0.754613 0)
(-0.202464 1.54328 0)
(-0.38458 2.00382 0)
(-0.510908 2.11639 0)
(-0.569351 2.14697 0)
(-0.600486 2.04946 0)
(-0.572325 1.94064 0)
(-0.547866 1.77792 0)
(-0.492635 1.58961 0)
(-0.468755 1.34892 0)
(-0.444866 1.0346 0)
(-0.484225 0.64297 0)
(-0.553527 0.114515 0)
(-0.715686 -0.511099 0)
(-0.923645 -1.34233 0)
(-1.20167 -2.22727 0)
(-1.46692 -3.33216 0)
(-1.55211 -4.09013 0)
(-1.41997 -4.68421 0)
(-0.46235 -2.9714 0)
(4.38259e-254 -4.54571e-184 0)
(-0.123321 0.844564 0)
(-0.335673 1.65681 0)
(-0.510464 2.10071 0)
(-0.58969 2.14927 0)
(-0.532316 2.13286 0)
(-0.454382 1.99234 0)
(-0.289277 1.85817 0)
(-0.142789 1.68293 0)
(0.0436529 1.49755 0)
(0.182221 1.27607 0)
(0.32294 0.998926 0)
(0.373372 0.664536 0)
(0.391612 0.214146 0)
(0.253451 -0.314827 0)
(0.0595773 -1.0392 0)
(-0.378593 -1.84104 0)
(-0.808072 -2.92626 0)
(-1.51799 -3.86981 0)
(-1.67863 -4.77931 0)
(-2.06633 -3.81253 0)
(-2.56214e-264 -0.214397 0)
(-0.178905 1.23502 0)
(-0.428264 1.93475 0)
(-0.533934 2.28014 0)
(-0.509953 2.13851 0)
(-0.296908 2.02551 0)
(-0.0739022 1.80608 0)
(0.246864 1.63566 0)
(0.532209 1.44512 0)
(0.855886 1.26672 0)
(1.11648 1.07142 0)
(1.37603 0.842879 0)
(1.52967 0.579247 0)
(1.64686 0.231048 0)
(1.58476 -0.169554 0)
(1.4492 -0.720998 0)
(1.02088 -1.34309 0)
(0.501732 -2.22362 0)
(-0.407705 -3.17557 0)
(-1.11729 -4.22513 0)
(-1.84823 -4.50253 0)
(-0.857588 -2.307 0)
(-0.400022 1.41735 0)
(-0.728675 1.98314 0)
(-0.532927 2.17657 0)
(-0.26778 1.89539 0)
(0.269176 1.69785 0)
(0.712835 1.44072 0)
(1.24802 1.25409 0)
(1.68779 1.07191 0)
(2.14935 0.915186 0)
(2.51451 0.758819 0)
(2.8693 0.588019 0)
(3.09477 0.402312 0)
(3.28659 0.16244 0)
(3.27081 -0.101495 0)
(3.20458 -0.471603 0)
(2.79049 -0.871371 0)
(2.32953 -1.49797 0)
(1.31998 -2.22069 0)
(0.428383 -3.34307 0)
(-0.719275 -3.99472 0)
(-0.69932 -2.96203 0)
(-0.255913 2.42558 0)
(-0.0998496 2.06231 0)
(0.685626 1.86979 0)
(1.32591 1.3286 0)
(2.13074 1.0653 0)
(2.74432 0.820517 0)
(3.38401 0.666951 0)
(3.88403 0.539648 0)
(4.37375 0.440466 0)
(4.74928 0.351123 0)
(5.10172 0.260933 0)
(5.32393 0.167182 0)
(5.51312 0.0516008 0)
(5.50972 -0.074753 0)
(5.46955 -0.25053 0)
(5.11552 -0.44635 0)
(4.73578 -0.784113 0)
(3.81227 -1.2419 0)
(2.85471 -2.25345 0)
(1.08694 -3.32894 0)
(-0.0451597 -3.79974 0)
(1.66829 1.67059 0)
(2.70737 0.975775 0)
(4.54971 0.748962 0)
(5.38739 0.423473 0)
(6.25059 0.285264 0)
(6.75453 0.176442 0)
(7.22703 0.11964 0)
(7.54387 0.0796284 0)
(7.83667 0.0538345 0)
(8.03645 0.034046 0)
(8.21846 0.0164878 0)
(8.31073 -0.000160393 0)
(8.38833 -0.020929 0)
(8.33741 -0.0417866 0)
(8.2831 -0.0775129 0)
(8.00222 -0.111154 0)
(7.75028 -0.201111 0)
(6.99816 -0.294252 0)
(6.26432 -0.626568 0)
(4.04685 -0.998625 0)
(2.00679 -1.81956 0)
)
;

boundaryField
{
    movingWall
    {
        type            fixedValue;
        value           uniform (10 0 0);
    }
    fixedWalls
    {
        type            noSlip;
    }
    frontAndBack
    {
        type            empty;
    }
}


// ************************************************************************* //
