/*--------------------------------*- C++ -*----------------------------------*\
| =========                 |                                                 |
| \\      /  F ield         | OpenFOAM: The Open Source CFD Toolbox           |
|  \\    /   O peration     | Version:  4.1                                   |
|   \\  /    A nd           | Web:      www.OpenFOAM.org                      |
|    \\/     M anipulation  |                                                 |
\*---------------------------------------------------------------------------*/
FoamFile
{
    version     2.0;
    format      ascii;
    class       volVectorField;
    location    "0.0809";
    object      U;
}
// * * * * * * * * * * * * * * * * * * * * * * * * * * * * * * * * * * * * * //

dimensions      [0 1 -1 0 0 0 0];

internalField   nonuniform List<vector> 
441
(
(0.00368033 -0.00478819 0)
(0.00960285 -0.00253955 0)
(-0.000634888 -2.20238e-165 0)
(0.00193496 -3.26957e-266 0)
(-0.00838439 -0.00774027 0)
(-0.00193496 -3.01885e-232 0)
(-1.13296e-202 -5.50666e-203 0)
(-1.37657e-203 -7.22038e-228 0)
(-1.69891e-212 -3.14875e-213 0)
(-0.00606552 9.0034e-266 0)
(-0.0742967 0.0242634 0)
(-0.0934309 0.0127092 0)
(-0.105365 0.00583533 0)
(-0.0928757 0.000418917 0)
(-0.0766288 -0.0016098 0)
(-0.0512788 -0.00297736 0)
(-0.0293836 -0.00214502 0)
(-0.00976693 -0.00161683 0)
(0.00225167 0.000687994 0)
(0.00422415 0.00144534 0)
(0.00450615 0.0029479 0)
(0.00376493 -0.00830861 0)
(-0.00105081 0.00678658 0)
(-0.0273372 0.00839457 0)
(-0.0588885 0.0106807 0)
(-0.105933 0.0107387 0)
(-0.150314 -0.00331022 0)
(-0.192096 -0.000169774 0)
(-0.232283 0.00163393 0)
(-0.26798 0.0130604 0)
(-0.303989 0.0661401 0)
(-0.328548 0.0609463 0)
(-0.323009 0.0187777 0)
(-0.308482 -0.00698293 0)
(-0.266923 -0.0299348 0)
(-0.218013 -0.0401651 0)
(-0.156161 -0.0455798 0)
(-0.100117 -0.0391887 0)
(-0.0500542 -0.031295 0)
(-0.0160825 -0.0141609 0)
(-0.00149547 -0.00442659 0)
(0.00486369 0.0060078 0)
(0.00748915 -0.00801159 0)
(-0.00522055 0.0281752 0)
(-0.0538274 0.0564488 0)
(-0.119685 0.0760679 0)
(-0.200139 0.0825183 0)
(-0.283411 0.0820467 0)
(-0.372904 0.0791065 0)
(-0.445727 0.0734155 0)
(-0.517291 0.0689572 0)
(-0.552397 0.0651203 0)
(-0.548554 0.0442146 0)
(-0.530834 -0.00611239 0)
(-0.494586 -0.0495641 0)
(-0.43038 -0.0898504 0)
(-0.353687 -0.111399 0)
(-0.260653 -0.121161 0)
(-0.174205 -0.107063 0)
(-0.0948542 -0.0861739 0)
(-0.0387942 -0.0467644 0)
(-0.00844284 -0.0199476 0)
(0.00628865 0.0067098 0)
(0.00630449 -0.0108992 0)
(-0.0160376 0.0698597 0)
(-0.0960301 0.122829 0)
(-0.190389 0.159415 0)
(-0.301573 0.174831 0)
(-0.413518 0.172211 0)
(-0.523837 0.163868 0)
(-0.619409 0.146932 0)
(-0.698107 0.122189 0)
(-0.744606 0.0946939 0)
(-0.75411 0.0391142 0)
(-0.730969 -0.0363298 0)
(-0.682004 -0.107604 0)
(-0.597317 -0.17203 0)
(-0.495484 -0.209736 0)
(-0.371705 -0.226614 0)
(-0.254661 -0.204429 0)
(-0.144032 -0.1684 0)
(-0.064088 -0.0996884 0)
(-0.0158863 -0.0509032 0)
(0.0079448 0.00423965 0)
(6.85517e-165 0.00157612 0)
(-0.0242967 0.130054 0)
(-0.139441 0.230005 0)
(-0.257359 0.280149 0)
(-0.397638 0.304527 0)
(-0.534061 0.302443 0)
(-0.669887 0.283659 0)
(-0.785081 0.246566 0)
(-0.880825 0.193408 0)
(-0.937606 0.121836 0)
(-0.954985 0.0309891 0)
(-0.933139 -0.0779594 0)
(-0.87651 -0.182448 0)
(-0.775957 -0.276735 0)
(-0.651096 -0.335925 0)
(-0.494946 -0.362903 0)
(-0.344866 -0.333237 0)
(-0.196146 -0.277896 0)
(-0.0896764 -0.173183 0)
(-0.0182044 -0.0928719 0)
(0.0145545 -0.000441945 0)
(-5.55739e-266 0.00573965 0)
(-0.0888171 0.214069 0)
(-0.19483 0.353872 0)
(-0.336415 0.419466 0)
(-0.489984 0.451388 0)
(-0.647412 0.445539 0)
(-0.799546 0.415518 0)
(-0.933946 0.358125 0)
(-1.04497 0.27561 0)
(-1.11909 0.168061 0)
(-1.15372 0.0349492 0)
(-1.14022 -0.115848 0)
(-1.08453 -0.264542 0)
(-0.97297 -0.399104 0)
(-0.828039 -0.490308 0)
(-0.638275 -0.535377 0)
(-0.451078 -0.502178 0)
(-0.25767 -0.426789 0)
(-0.119163 -0.275625 0)
(-0.0203154 -0.158387 0)
(0.0161341 0.00192919 0)
(-0.0229586 0.0936152 0)
(-0.123817 0.321292 0)
(-0.245943 0.477964 0)
(-0.401744 0.573441 0)
(-0.574288 0.614673 0)
(-0.750167 0.610502 0)
(-0.92262 0.569341 0)
(-1.07708 0.491022 0)
(-1.20914 0.378292 0)
(-1.30384 0.230329 0)
(-1.3585 0.0526076 0)
(-1.35984 -0.147473 0)
(-1.31184 -0.348693 0)
(-1.19566 -0.534202 0)
(-1.0351 -0.669163 0)
(-0.810666 -0.741805 0)
(-0.583697 -0.711561 0)
(-0.332292 -0.612322 0)
(-0.159024 -0.407254 0)
(-0.00726199 -0.230042 0)
(5.95702e-266 -0.00403353 0)
(-0.016938 0.154975 0)
(-0.118566 0.438217 0)
(-0.268856 0.632338 0)
(-0.44516 0.748583 0)
(-0.637604 0.800017 0)
(-0.83266 0.794144 0)
(-1.0237 0.742725 0)
(-1.19931 0.644499 0)
(-1.35362 0.502786 0)
(-1.47352 0.31685 0)
(-1.55423 0.0913794 0)
(-1.57831 -0.163612 0)
(-1.54745 -0.428211 0)
(-1.43609 -0.678115 0)
(-1.26749 -0.874622 0)
(-1.01273 -0.991023 0)
(-0.743459 -0.978919 0)
(-0.428851 -0.857898 0)
(-0.206575 -0.596008 0)
(-0.00362093 -0.327004 0)
(2.58853e-24 -1.07726e-24 0)
(-0.0150483 0.22547 0)
(-0.122189 0.571326 0)
(-0.289179 0.802905 0)
(-0.480378 0.94029 0)
(-0.689199 1.00081 0)
(-0.899644 0.994936 0)
(-1.10748 0.935035 0)
(-1.30228 0.819748 0)
(-1.47884 0.652219 0)
(-1.62495 0.430261 0)
(-1.73446 0.157975 0)
(-1.78783 -0.154807 0)
(-1.78322 -0.489472 0)
(-1.68861 -0.815517 0)
(-1.52418 -1.09033 0)
(-1.24864 -1.26914 0)
(-0.94158 -1.29179 0)
(-0.558244 -1.15465 0)
(-0.277173 -0.824676 0)
(-0.0049588 -0.444621 0)
(1.05398e-76 -6.47133e-25 0)
(-0.0130795 0.292778 0)
(-0.119793 0.714059 0)
(-0.296162 0.991232 0)
(-0.496015 1.14916 0)
(-0.714686 1.21967 0)
(-0.934804 1.21234 0)
(-1.15308 1.14556 0)
(-1.36196 1.01539 0)
(-1.55609 0.825611 0)
(-1.72624 0.571738 0)
(-1.86474 0.254594 0)
(-1.95186 -0.116053 0)
(-1.98216 -0.526755 0)
(-1.91798 -0.939842 0)
(-1.77376 -1.31374 0)
(-1.49432 -1.5797 0)
(-1.15993 -1.6678 0)
(-0.70992 -1.53282 0)
(-0.361178 -1.14361 0)
(-0.0071032 -0.619679 0)
(2.93125e-164 -2.63494e-77 0)
(-0.0130948 0.354873 0)
(-0.120734 0.85264 0)
(-0.302343 1.17678 0)
(-0.505189 1.3565 0)
(-0.7258 1.43784 0)
(-0.946897 1.43125 0)
(-1.16557 1.36104 0)
(-1.37854 1.22124 0)
(-1.58001 1.01606 0)
(-1.76607 0.738042 0)
(-1.92743 0.384198 0)
(-2.04817 -0.0377935 0)
(-2.11845 -0.521314 0)
(-2.09894 -1.02487 0)
(-1.99505 -1.51057 0)
(-1.73801 -1.88686 0)
(-1.40036 -2.07122 0)
(-0.901943 -1.96185 0)
(-0.486017 -1.5157 0)
(-0.0805215 -0.819168 0)
(1.78346e-265 0.0132756 0)
(-0.0136186 0.427497 0)
(-0.117538 1.00548 0)
(-0.296758 1.37716 0)
(-0.493301 1.57329 0)
(-0.70458 1.6625 0)
(-0.91455 1.65205 0)
(-1.11981 1.57782 0)
(-1.32257 1.42935 0)
(-1.51626 1.21331 0)
(-1.70418 0.918445 0)
(-1.87622 0.536785 0)
(-2.0233 0.0739756 0)
(-2.13295 -0.475357 0)
(-2.16777 -1.06547 0)
(-2.12377 -1.67345 0)
(-1.91953 -2.18101 0)
(-1.60832 -2.50263 0)
(-1.08112 -2.46166 0)
(-0.584766 -1.95913 0)
(-0.0758255 -1.12559 0)
(0.0531025 -0.0762515 0)
(-0.0168744 0.481643 0)
(-0.120956 1.13283 0)
(-0.299217 1.54963 0)
(-0.484952 1.76101 0)
(-0.675759 1.85728 0)
(-0.86098 1.84391 0)
(-1.03423 1.76812 0)
(-1.20777 1.61617 0)
(-1.3717 1.39744 0)
(-1.5412 1.09752 0)
(-1.7032 0.704091 0)
(-1.86238 0.219421 0)
(-2.0013 -0.374133 0)
(-2.0952 -1.0332 0)
(-2.12656 -1.75332 0)
(-2.00938 -2.40404 0)
(-1.77277 -2.90292 0)
(-1.24269 -2.99437 0)
(-0.714458 -2.51456 0)
(0.0426839 -1.46425 0)
(2.45252e-231 -0.0132756 0)
(-0.0213909 0.568294 0)
(-0.122752 1.29088 0)
(-0.292775 1.74504 0)
(-0.457306 1.95096 0)
(-0.613734 2.04173 0)
(-0.7584 2.01093 0)
(-0.881345 1.92666 0)
(-1.00555 1.76699 0)
(-1.1174 1.54759 0)
(-1.24449 1.25005 0)
(-1.37176 0.85799 0)
(-1.51917 0.372183 0)
(-1.66846 -0.242514 0)
(-1.81218 -0.940558 0)
(-1.92722 -1.75817 0)
(-1.93349 -2.53893 0)
(-1.83104 -3.26771 0)
(-1.40477 -3.53819 0)
(-0.892524 -3.23802 0)
(-0.00304872 -1.87782 0)
(5.81196e-202 4.58034e-184 0)
(-0.0373336 0.618876 0)
(-0.153514 1.39816 0)
(-0.325356 1.88048 0)
(-0.467194 2.07658 0)
(-0.571926 2.15694 0)
(-0.658003 2.10826 0)
(-0.704108 2.0152 0)
(-0.754926 1.85118 0)
(-0.786157 1.63707 0)
(-0.844916 1.3528 0)
(-0.907129 0.980281 0)
(-1.01746 0.518826 0)
(-1.14637 -0.0777354 0)
(-1.32662 -0.770268 0)
(-1.5094 -1.62384 0)
(-1.67406 -2.49677 0)
(-1.74169 -3.41502 0)
(-1.5321 -3.94142 0)
(-1.10937 -3.8927 0)
(-0.0114055 -2.38713 0)
(1.83213e-183 -1.25822e-184 0)
(-0.0559832 0.76732 0)
(-0.187724 1.58323 0)
(-0.35066 2.0683 0)
(-0.456059 2.19899 0)
(-0.492443 2.23984 0)
(-0.502135 2.14396 0)
(-0.453722 2.02801 0)
(-0.411732 1.84999 0)
(-0.342506 1.63957 0)
(-0.309303 1.37257 0)
(-0.281024 1.03066 0)
(-0.321215 0.61396 0)
(-0.396132 0.0651173 0)
(-0.568849 -0.57398 0)
(-0.792112 -1.41374 0)
(-1.09151 -2.30298 0)
(-1.38356 -3.41429 0)
(-1.50129 -4.17716 0)
(-1.39916 -4.77557 0)
(-0.465505 -3.03443 0)
(4.39888e-254 -4.58034e-184 0)
(-0.121798 0.848836 0)
(-0.321341 1.67978 0)
(-0.476159 2.14385 0)
(-0.532942 2.20876 0)
(-0.451494 2.20242 0)
(-0.350349 2.06469 0)
(-0.163695 1.92588 0)
(0.000736332 1.73909 0)
(0.2007 1.53636 0)
(0.347178 1.2939 0)
(0.490215 0.99458 0)
(0.53735 0.640051 0)
(0.54788 0.173707 0)
(0.397911 -0.36483 0)
(0.189673 -1.09315 0)
(-0.267337 -1.89425 0)
(-0.718554 -2.97911 0)
(-1.4592 -3.92466 0)
(-1.64843 -4.83779 0)
(-2.0725 -3.86259 0)
(-2.58822e-264 -0.2158 0)
(-0.17816 1.23214 0)
(-0.418322 1.94198 0)
(-0.507451 2.30234 0)
(-0.463573 2.17455 0)
(-0.22815 2.07108 0)
(0.0168991 1.85571 0)
(0.358416 1.6835 0)
(0.661039 1.4857 0)
(0.997601 1.29531 0)
(1.26536 1.08495 0)
(1.52628 0.840093 0)
(1.6755 0.5614 0)
(1.78376 0.201268 0)
(1.70912 -0.206257 0)
(1.55942 -0.759401 0)
(1.11525 -1.37848 0)
(0.57971 -2.254 0)
(-0.350762 -3.20336 0)
(-1.08331 -4.25265 0)
(-1.84211 -4.53274 0)
(-0.863201 -2.31575 0)
(-0.400501 1.41112 0)
(-0.726419 1.98041 0)
(-0.521491 2.18334 0)
(-0.242823 1.91246 0)
(0.311428 1.72285 0)
(0.773504 1.47006 0)
(1.32712 1.28367 0)
(1.78303 1.09783 0)
(2.25725 0.934024 0)
(2.62998 0.768237 0)
(2.98688 0.58693 0)
(3.20868 0.391348 0)
(3.39214 0.143586 0)
(3.36422 -0.124884 0)
(3.28438 -0.495779 0)
(2.85598 -0.892716 0)
(2.38243 -1.51412 0)
(1.35981 -2.23225 0)
(0.455544 -3.35194 0)
(-0.707937 -4.00468 0)
(-0.701051 -2.96388 0)
(-0.257176 2.42101 0)
(-0.104015 2.05762 0)
(0.682654 1.86913 0)
(1.32887 1.33344 0)
(2.1442 1.07478 0)
(2.77087 0.832858 0)
(3.42494 0.679946 0)
(3.93841 0.55123 0)
(4.43925 0.448825 0)
(4.82192 0.355057 0)
(5.17687 0.25992 0)
(5.39654 0.161568 0)
(5.57893 0.0424871 0)
(5.56533 -0.0856574 0)
(5.51365 -0.261191 0)
(5.14803 -0.455072 0)
(4.75888 -0.789403 0)
(3.82792 -1.24428 0)
(2.8651 -2.25342 0)
(1.09174 -3.33012 0)
(-0.0461579 -3.79897 0)
(1.66728 1.6696 0)
(2.703 0.974641 0)
(4.54312 0.748332 0)
(5.38164 0.423729 0)
(6.24883 0.286303 0)
(6.75896 0.177945 0)
(7.23877 0.121195 0)
(7.56259 0.0808817 0)
(7.86107 0.054491 0)
(8.06414 0.0339658 0)
(8.24676 0.0156536 0)
(8.33671 -0.00158199 0)
(8.40979 -0.0226758 0)
(8.35269 -0.0434835 0)
(8.29215 -0.0788195 0)
(8.00554 -0.111793 0)
(7.75005 -0.200945 0)
(6.99617 -0.293451 0)
(6.26262 -0.625298 0)
(4.04596 -0.997456 0)
(2.00539 -1.81808 0)
)
;

boundaryField
{
    movingWall
    {
        type            fixedValue;
        value           uniform (10 0 0);
    }
    fixedWalls
    {
        type            noSlip;
    }
    frontAndBack
    {
        type            empty;
    }
}


// ************************************************************************* //
