/*--------------------------------*- C++ -*----------------------------------*\
| =========                 |                                                 |
| \\      /  F ield         | OpenFOAM: The Open Source CFD Toolbox           |
|  \\    /   O peration     | Version:  4.1                                   |
|   \\  /    A nd           | Web:      www.OpenFOAM.org                      |
|    \\/     M anipulation  |                                                 |
\*---------------------------------------------------------------------------*/
FoamFile
{
    version     2.0;
    format      ascii;
    class       volScalarField;
    location    "0.0013";
    object      p;
}
// * * * * * * * * * * * * * * * * * * * * * * * * * * * * * * * * * * * * * //

dimensions      [1 -1 -2 0 0 0 0];

internalField   nonuniform List<scalar> 
441
(
100000
99999.9
99999.7
100000
100000
99999.5
100000
100000
100000
100001
100001
100001
100001
100000
100000
100000
100000
100000
100000
100000
100000
100000
100000
100000
100000
100000
100000
100000
100000
100000
100000
100001
100000
100000
100000
100000
100000
100000
100000
100000
100000
100000
100000
99999.9
99999.9
99999.9
99999.9
99999.9
100000
100000
100000
100001
100001
100001
100001
100001
100001
100001
100001
100001
100001
100001
100001
100000
99999.8
99999.8
99999.8
99999.8
99999.9
100000
100000
100000
100000
100000
100000
100001
100001
100001
100001
100001
100001
100001
100001
100001
99999.9
99999.2
99999.4
99999.4
99999.5
99999.6
99999.7
99999.9
100000
100000
100000
100001
100001
100001
100001
100001
100001
100001
100001
100001
100001
99998
99998.9
99998.7
99999
99999
99999.3
99999.4
99999.7
99999.9
100000
100000
100001
100001
100001
100001
100001
100001
100002
100001
100002
100001
99997.5
99997.9
99998
99998.3
99998.4
99998.7
99999
99999.3
99999.7
100000
100000
100001
100001
100001
100002
100002
100002
100002
100002
100003
100001
99997.1
99997.3
99997.3
99997.6
99997.8
99998.2
99998.5
99999
99999.4
99999.9
100000
100001
100001
100002
100002
100003
100003
100003
100003
100003
100003
99996
99996.1
99996.3
99996.6
99996.9
99997.4
99997.9
99998.5
99999.1
99999.8
100000
100001
100002
100002
100003
100003
100004
100004
100004
100005
100004
99995
99995.1
99995.2
99995.6
99996
99996.6
99997.2
99998
99998.7
99999.6
100000
100001
100002
100003
100004
100004
100005
100005
100005
100006
100005
99993.3
99993.5
99993.7
99994.2
99994.7
99995.5
99996.2
99997.2
99998.3
99999.4
100001
100002
100003
100004
100005
100005
100006
100007
100007
100007
100008
99991.9
99992.1
99992.3
99992.9
99993.4
99994.4
99995.3
99996.6
99997.8
99999.2
100001
100002
100003
100005
100006
100007
100007
100008
100008
100009
100009
99989.3
99989.6
99989.9
99990.8
99991.5
99992.8
99994
99995.6
99997.2
99998.9
100001
100002
100004
100006
100007
100008
100010
100010
100010
100011
100009
99987.5
99987.9
99988.1
99989.2
99990
99991.5
99992.9
99994.8
99996.6
99998.6
100001
100003
100005
100007
100009
100010
100011
100012
100013
100013
100013
99983.5
99984.2
99984.5
99986.2
99987.2
99989.5
99991.2
99993.6
99995.8
99998.3
100001
100003
100006
100008
100010
100012
100015
100015
100017
100017
100016
99981.4
99982.2
99982.4
99984.4
99985.5
99988.1
99990.1
99992.8
99995.3
99998
100001
100003
100006
100009
100012
100014
100017
100017
100020
100019
100019
99974.1
99976.3
99976.7
99980.3
99981.9
99985.7
99988.1
99991.6
99994.4
99997.6
100001
100004
100007
100010
100014
100016
100021
100022
100029
100025
100039
99972
99974.3
99974.5
99978.6
99980.4
99984.6
99987.2
99991
99994
99997.4
100001
100004
100007
100010
100015
100017
100022
100024
100030
100030
100037
99956.6
99964.9
99965.5
99973.6
99976.2
99982.3
99985.4
99990.1
99993.4
99997.1
100001
100004
100008
100011
100016
100019
100027
100029
100040
100040
100052
99954.3
99963.3
99964.1
99972.5
99975.4
99981.7
99985.1
99989.8
99993.2
99997
100001
100004
100008
100011
100016
100019
100026
100028
100039
100040
100054
99907.9
99950.5
99953.6
99969
99972.8
99980.7
99984.3
99989.5
99993
99996.9
100001
100004
100008
100011
100017
100020
100029
100032
100051
100057
100105
)
;

boundaryField
{
    movingWall
    {
        type            zeroGradient;
    }
    fixedWalls
    {
        type            zeroGradient;
    }
    frontAndBack
    {
        type            empty;
    }
}


// ************************************************************************* //
