/*--------------------------------*- C++ -*----------------------------------*\
| =========                 |                                                 |
| \\      /  F ield         | OpenFOAM: The Open Source CFD Toolbox           |
|  \\    /   O peration     | Version:  4.1                                   |
|   \\  /    A nd           | Web:      www.OpenFOAM.org                      |
|    \\/     M anipulation  |                                                 |
\*---------------------------------------------------------------------------*/
FoamFile
{
    version     2.0;
    format      ascii;
    class       volVectorField;
    location    "6.5";
    object      U;
}
// * * * * * * * * * * * * * * * * * * * * * * * * * * * * * * * * * * * * * //

dimensions      [0 1 -1 0 0 0 0];

internalField   nonuniform List<vector> 
400
(
(0.000184832 -0.000181977 0)
(-0.000110056 8.80585e-05 0)
(-0.0015089 0.000323977 0)
(-0.00362097 0.000497187 0)
(-0.00622255 0.000581177 0)
(-0.00899194 0.000608731 0)
(-0.0117159 0.000584757 0)
(-0.0141643 0.000513509 0)
(-0.0161217 0.000389248 0)
(-0.0173639 0.000210064 0)
(-0.0176924 -1.82726e-05 0)
(-0.0169724 -0.000275281 0)
(-0.0151833 -0.000525538 0)
(-0.0124673 -0.000720711 0)
(-0.00913608 -0.00081329 0)
(-0.00567218 -0.000764124 0)
(-0.00260204 -0.000573786 0)
(-0.000465994 -0.000260801 0)
(0.000504515 5.92095e-05 0)
(0.000300741 0.000286006 0)
(-9.07679e-05 0.000100947 0)
(-0.00198498 0.00187275 0)
(-0.00620634 0.00351065 0)
(-0.0118926 0.00468035 0)
(-0.0185656 0.00527713 0)
(-0.0255316 0.00538837 0)
(-0.0322648 0.00505169 0)
(-0.0382084 0.00428594 0)
(-0.0428451 0.00308877 0)
(-0.045674 0.00148647 0)
(-0.0462829 -0.000433339 0)
(-0.0444233 -0.00249432 0)
(-0.0401007 -0.00443248 0)
(-0.0336564 -0.00592408 0)
(-0.0257735 -0.00665671 0)
(-0.0174695 -0.00640651 0)
(-0.00985783 -0.00516527 0)
(-0.00407996 -0.00314262 0)
(-0.000662442 -0.00097379 0)
(0.000162375 0.000536778 0)
(-0.000401437 0.0016223 0)
(-0.00415644 0.00621131 0)
(-0.0112207 0.0100704 0)
(-0.0201822 0.0127195 0)
(-0.0303635 0.0140224 0)
(-0.0408084 0.0141137 0)
(-0.050779 0.0130667 0)
(-0.0594947 0.0109243 0)
(-0.0662364 0.00771509 0)
(-0.0703256 0.00354395 0)
(-0.0712171 -0.0013414 0)
(-0.0685879 -0.00650347 0)
(-0.062443 -0.011322 0)
(-0.0532165 -0.0150585 0)
(-0.0417875 -0.0170014 0)
(-0.0294989 -0.016643 0)
(-0.0178637 -0.0139355 0)
(-0.00852476 -0.009355 0)
(-0.0023353 -0.00419685 0)
(-2.39887e-05 -7.92178e-05 0)
(-0.000705122 0.00425242 0)
(-0.00628533 0.012811 0)
(-0.0160766 0.0194452 0)
(-0.0280602 0.0237846 0)
(-0.0413704 0.0257934 0)
(-0.0548438 0.0256928 0)
(-0.0676087 0.0236065 0)
(-0.0787435 0.0196085 0)
(-0.0874041 0.0137718 0)
(-0.0927922 0.00629927 0)
(-0.0942538 -0.00237485 0)
(-0.0913672 -0.0115175 0)
(-0.0840571 -0.020103 0)
(-0.0727234 -0.0269046 0)
(-0.0582922 -0.030707 0)
(-0.0423101 -0.0305947 0)
(-0.0266375 -0.0263694 0)
(-0.0134924 -0.0187237 0)
(-0.00419514 -0.00963529 0)
(-0.000211053 -0.00157333 0)
(-0.000964742 0.00796511 0)
(-0.00820093 0.0216471 0)
(-0.0204987 0.0315977 0)
(-0.0352423 0.0378072 0)
(-0.0513874 0.0404968 0)
(-0.067602 0.0400398 0)
(-0.0829372 0.0366386 0)
(-0.0963935 0.0304057 0)
(-0.107056 0.0214579 0)
(-0.114037 0.0100896 0)
(-0.116569 -0.00308903 0)
(-0.114075 -0.0170563 0)
(-0.1063 -0.0303664 0)
(-0.0934651 -0.0412434 0)
(-0.0763946 -0.0478367 0)
(-0.0567329 -0.0486248 0)
(-0.0366795 -0.0430374 0)
(-0.019183 -0.0318356 0)
(-0.00625419 -0.0176824 0)
(-0.000383207 -0.00403521 0)
(-0.00118751 0.0125948 0)
(-0.00986123 0.0324186 0)
(-0.02436 0.0461629 0)
(-0.0415361 0.0543941 0)
(-0.0601921 0.0577488 0)
(-0.0788698 0.0568338 0)
(-0.0965919 0.0519676 0)
(-0.112336 0.0433057 0)
(-0.125164 0.0309914 0)
(-0.134127 0.0153718 0)
(-0.138336 -0.00282188 0)
(-0.137016 -0.0223385 0)
(-0.129625 -0.0413467 0)
(-0.116063 -0.0574906 0)
(-0.0968642 -0.0681404 0)
(-0.0736074 -0.0708923 0)
(-0.0487632 -0.064437 0)
(-0.0261576 -0.0493026 0)
(-0.00878479 -0.0287836 0)
(-0.000590375 -0.00758107 0)
(-0.00136537 0.0180098 0)
(-0.0112108 0.0448581 0)
(-0.0275241 0.0628228 0)
(-0.0467174 0.0732276 0)
(-0.0674735 0.077271 0)
(-0.0882537 0.0758762 0)
(-0.108097 0.0695209 0)
(-0.126013 0.0584072 0)
(-0.141087 0.0426774 0)
(-0.152352 0.022671 0)
(-0.158818 -0.000848819 0)
(-0.159494 -0.0265062 0)
(-0.153494 -0.0521754 0)
(-0.140253 -0.074945 0)
(-0.119807 -0.0912883 0)
(-0.0933996 -0.097594 0)
(-0.0635601 -0.09128 0)
(-0.0350268 -0.0721005 0)
(-0.0121114 -0.0437602 0)
(-0.000881509 -0.0125363 0)
(-0.00149409 0.0240252 0)
(-0.012201 0.0585882 0)
(-0.0298588 0.0811137 0)
(-0.0505403 0.0938203 0)
(-0.0728411 0.0985989 0)
(-0.0951887 0.0967708 0)
(-0.116681 0.0890223 0)
(-0.136412 0.0756097 0)
(-0.153554 0.056646 0)
(-0.167183 0.0323937 0)
(-0.176272 0.00353775 0)
(-0.179663 -0.0285685 0)
(-0.176127 -0.0616661 0)
(-0.164556 -0.0924117 0)
(-0.144274 -0.116363 0)
(-0.115826 -0.128411 0)
(-0.0813705 -0.124019 0)
(-0.0463317 -0.10128 0)
(-0.0166022 -0.0636894 0)
(-0.00132331 -0.0193978 0)
(-0.00157062 0.0304499 0)
(-0.0127966 0.0731985 0)
(-0.0312553 0.100507 0)
(-0.0527751 0.115582 0)
(-0.0758889 0.121123 0)
(-0.0990354 0.11893 0)
(-0.12141 0.109955 0)
(-0.142247 0.0945294 0)
(-0.160875 0.0727205 0)
(-0.176503 0.0446546 0)
(-0.188174 0.010829 0)
(-0.19468 -0.027596 0)
(-0.194549 -0.0684562 0)
(-0.186155 -0.10823 0)
(-0.167976 -0.141727 0)
(-0.139463 -0.16222 0)
(-0.101768 -0.162519 0)
(-0.0603471 -0.137761 0)
(-0.0226296 -0.0898822 0)
(-0.00199834 -0.028886 0)
(-0.0016022 0.0370666 0)
(-0.0130169 0.0882119 0)
(-0.0316979 0.120362 0)
(-0.0533045 0.13775 0)
(-0.0763195 0.143999 0)
(-0.0992417 0.141466 0)
(-0.1214 0.131442 0)
(-0.142231 0.114364 0)
(-0.161288 0.0902644 0)
(-0.178019 0.0591023 0)
(-0.191672 0.021103 0)
(-0.201162 -0.0229287 0)
(-0.204973 -0.0711902 0)
(-0.201117 -0.120359 0)
(-0.187267 -0.164912 0)
(-0.161495 -0.196729 0)
(-0.123237 -0.205494 0)
(-0.0768304 -0.181831 0)
(-0.0305371 -0.123662 0)
(-0.00302162 -0.0419438 0)
(-0.00162331 0.0437321 0)
(-0.0129821 0.103219 0)
(-0.0313335 0.140042 0)
(-0.0522173 0.159478 0)
(-0.0740714 0.166212 0)
(-0.0955202 0.163235 0)
(-0.116068 0.152262 0)
(-0.135416 0.133886 0)
(-0.153413 0.10814 0)
(-0.169836 0.0748198 0)
(-0.184276 0.0338417 0)
(-0.195959 -0.0144613 0)
(-0.203575 -0.0688961 0)
(-0.205072 -0.126783 0)
(-0.197582 -0.182904 0)
(-0.177794 -0.228435 0)
(-0.142914 -0.250052 0)
(-0.0946734 -0.232508 0)
(-0.0405362 -0.166007 0)
(-0.00455337 -0.0597488 0)
(-0.00170016 0.0503321 0)
(-0.0129832 0.117811 0)
(-0.0305875 0.158847 0)
(-0.0499535 0.179771 0)
(-0.0694806 0.18653 0)
(-0.0880363 0.182822 0)
(-0.10536 0.170878 0)
(-0.121494 0.151498 0)
(-0.136633 0.124764 0)
(-0.150959 0.0903473 0)
(-0.164495 0.0478723 0)
(-0.17693 -0.00283988 0)
(-0.18741 -0.0613643 0)
(-0.194176 -0.126057 0)
(-0.194302 -0.192743 0)
(-0.183461 -0.253025 0)
(-0.156637 -0.291559 0)
(-0.11156 -0.286835 0)
(-0.0524976 -0.21693 0)
(-0.00680766 -0.0836461 0)
(-0.00199131 0.0571928 0)
(-0.013545 0.132059 0)
(-0.0301768 0.176407 0)
(-0.047279 0.197769 0)
(-0.0632338 0.203717 0)
(-0.0773613 0.198715 0)
(-0.0897201 0.185594 0)
(-0.100788 0.165384 0)
(-0.111143 0.138261 0)
(-0.1214 0.103814 0)
(-0.132047 0.0614343 0)
(-0.143313 0.0104753 0)
(-0.154971 -0.0494254 0)
(-0.165881 -0.117878 0)
(-0.173655 -0.192376 0)
(-0.173657 -0.266288 0)
(-0.159375 -0.32414 0)
(-0.123774 -0.339506 0)
(-0.0655735 -0.274696 0)
(-0.0100356 -0.115017 0)
(-0.00274422 0.0645717 0)
(-0.0156326 0.145837 0)
(-0.0313615 0.192057 0)
(-0.0454922 0.212264 0)
(-0.0564543 0.216209 0)
(-0.0644296 0.209141 0)
(-0.0699215 0.194526 0)
(-0.0739758 0.173597 0)
(-0.0775652 0.146628 0)
(-0.0817309 0.11316 0)
(-0.0873995 0.072424 0)
(-0.0953186 0.0234201 0)
(-0.105955 -0.0348724 0)
(-0.118989 -0.103279 0)
(-0.133121 -0.181262 0)
(-0.144259 -0.265115 0)
(-0.145825 -0.341679 0)
(-0.126269 -0.383012 0)
(-0.0776778 -0.33491 0)
(-0.0144444 -0.154781 0)
(-0.00450394 0.074724 0)
(-0.020511 0.160815 0)
(-0.0353572 0.206287 0)
(-0.0455329 0.22257 0)
(-0.0496524 0.222612 0)
(-0.0494116 0.212321 0)
(-0.0458957 0.195727 0)
(-0.0408686 0.174115 0)
(-0.035682 0.147783 0)
(-0.0317648 0.116213 0)
(-0.0304044 0.0785313 0)
(-0.0327892 0.0335261 0)
(-0.0400331 -0.0202529 0)
(-0.0526727 -0.0845575 0)
(-0.0708545 -0.160676 0)
(-0.0917786 -0.248405 0)
(-0.110643 -0.339222 0)
(-0.112753 -0.408721 0)
(-0.084772 -0.390141 0)
(-0.0199863 -0.202953 0)
(-0.00811818 0.087836 0)
(-0.0307437 0.176004 0)
(-0.0440491 0.216982 0)
(-0.0481291 0.225918 0)
(-0.0421037 0.220022 0)
(-0.0304787 0.20553 0)
(-0.0150398 0.186734 0)
(0.00158013 0.164721 0)
(0.0177396 0.139667 0)
(0.0317163 0.110964 0)
(0.0419883 0.0776713 0)
(0.0470584 0.0385144 0)
(0.0453002 -0.00812027 0)
(0.0354455 -0.0644481 0)
(0.0158426 -0.13303 0)
(-0.0123976 -0.216851 0)
(-0.0480284 -0.313475 0)
(-0.0755089 -0.407516 0)
(-0.0801393 -0.428974 0)
(-0.0257829 -0.256304 0)
(-0.014706 0.114266 0)
(-0.045885 0.196892 0)
(-0.0531562 0.225261 0)
(-0.0457045 0.220429 0)
(-0.0239429 0.205419 0)
(0.00345505 0.185588 0)
(0.0342071 0.164584 0)
(0.064895 0.142787 0)
(0.093823 0.119953 0)
(0.119179 0.095294 0)
(0.139405 0.067808 0)
(0.152881 0.0362689 0)
(0.157695 -0.000878053 0)
(0.152071 -0.0458314 0)
(0.133129 -0.101683 0)
(0.100278 -0.173413 0)
(0.050111 -0.264561 0)
(-0.0038277 -0.372805 0)
(-0.0523378 -0.438315 0)
(-0.028584 -0.30936 0)
(-0.0256406 0.142055 0)
(-0.065922 0.208982 0)
(-0.0488926 0.215989 0)
(-0.0161686 0.194344 0)
(0.0318206 0.170537 0)
(0.0810547 0.147261 0)
(0.130261 0.126171 0)
(0.176115 0.106678 0)
(0.217572 0.0879555 0)
(0.253269 0.069069 0)
(0.28201 0.0490295 0)
(0.302381 0.0267985 0)
(0.31253 0.00109268 0)
(0.310452 -0.0298092 0)
(0.292617 -0.0687122 0)
(0.256947 -0.120613 0)
(0.195668 -0.19289 0)
(0.117762 -0.296133 0)
(0.0172684 -0.395136 0)
(-0.0172673 -0.338711 0)
(-0.0186995 0.214791 0)
(-0.019733 0.215413 0)
(0.0564815 0.181344 0)
(0.128138 0.139885 0)
(0.204489 0.1099 0)
(0.272141 0.0876668 0)
(0.333259 0.070542 0)
(0.386494 0.0567747 0)
(0.432223 0.0449071 0)
(0.470186 0.0339475 0)
(0.49997 0.0230566 0)
(0.520755 0.0115196 0)
(0.5312 -0.00149528 0)
(0.529521 -0.0169658 0)
(0.512526 -0.0368829 0)
(0.477222 -0.0646513 0)
(0.413879 -0.108486 0)
(0.323439 -0.186678 0)
(0.17288 -0.296517 0)
(0.0429115 -0.334996 0)
(0.211386 0.12962 0)
(0.297447 0.100999 0)
(0.451355 0.0674604 0)
(0.543339 0.0442509 0)
(0.617868 0.0289927 0)
(0.673483 0.0197571 0)
(0.717153 0.0137776 0)
(0.751561 0.00976676 0)
(0.778705 0.00682649 0)
(0.799586 0.00445644 0)
(0.814625 0.00232262 0)
(0.82375 0.000204183 0)
(0.82644 -0.00212059 0)
(0.82167 -0.0048382 0)
(0.807545 -0.00849251 0)
(0.781072 -0.0136777 0)
(0.734215 -0.0229014 0)
(0.658555 -0.0407409 0)
(0.498138 -0.0743833 0)
(0.288343 -0.136228 0)
)
;

boundaryField
{
    movingWall
    {
        type            fixedValue;
        value           uniform (1 0 0);
    }
    fixedWalls
    {
        type            noSlip;
    }
    frontAndBack
    {
        type            empty;
    }
}


// ************************************************************************* //
