/*--------------------------------*- C++ -*----------------------------------*\
| =========                 |                                                 |
| \\      /  F ield         | OpenFOAM: The Open Source CFD Toolbox           |
|  \\    /   O peration     | Version:  4.1                                   |
|   \\  /    A nd           | Web:      www.OpenFOAM.org                      |
|    \\/     M anipulation  |                                                 |
\*---------------------------------------------------------------------------*/
FoamFile
{
    version     2.0;
    format      ascii;
    class       volVectorField;
    location    "0.14";
    object      U;
}
// * * * * * * * * * * * * * * * * * * * * * * * * * * * * * * * * * * * * * //

dimensions      [0 1 -1 0 0 0 0];

internalField   nonuniform List<vector> 
100
(
(-0.00154089 0.000853974 0)
(-0.00444985 0.0011429 0)
(-0.012044 0.0014312 0)
(-0.0161072 0.000560018 0)
(-0.0205071 0.000263318 0)
(-0.0215788 -0.00114533 0)
(-0.0196403 -0.00177064 0)
(-0.0157764 -0.0032474 0)
(-0.00666263 -0.00317419 0)
(-0.00244173 -0.00264049 0)
(-0.00303592 0.00519227 0)
(-0.0107673 0.0092881 0)
(-0.0251763 0.0105322 0)
(-0.0336411 0.00767804 0)
(-0.0414512 0.00562332 0)
(-0.0432827 -1.73146e-05 0)
(-0.0395718 -0.00366471 0)
(-0.0315616 -0.0100082 0)
(-0.0147662 -0.0100132 0)
(-0.00424115 -0.00644567 0)
(-0.00382616 0.0146539 0)
(-0.0140427 0.0230597 0)
(-0.0318049 0.0245472 0)
(-0.0426557 0.0163847 0)
(-0.052811 0.0102078 0)
(-0.0558626 -0.00358628 0)
(-0.052574 -0.0133057 0)
(-0.0429998 -0.0286472 0)
(-0.0219301 -0.0306128 0)
(-0.00638284 -0.0219274 0)
(-0.00605469 0.0228977 0)
(-0.0196165 0.036991 0)
(-0.0421868 0.0393604 0)
(-0.0563575 0.0283653 0)
(-0.0695523 0.0193904 0)
(-0.0751032 -0.000440284 0)
(-0.0734277 -0.0157786 0)
(-0.0629932 -0.0406388 0)
(-0.0360232 -0.0459853 0)
(-0.0109873 -0.0342581 0)
(-0.00713199 0.0405511 0)
(-0.022809 0.0588549 0)
(-0.0487896 0.0618093 0)
(-0.06588 0.0429999 0)
(-0.0832226 0.0294093 0)
(-0.0929615 -0.00073722 0)
(-0.096456 -0.025272 0)
(-0.0881055 -0.067349 0)
(-0.0572261 -0.0831835 0)
(-0.0183576 -0.0699407 0)
(-0.0139972 0.052263 0)
(-0.0362191 0.077978 0)
(-0.0681377 0.0826113 0)
(-0.0898818 0.0621673 0)
(-0.110714 0.047321 0)
(-0.125428 0.0124924 0)
(-0.135683 -0.0192399 0)
(-0.130675 -0.0796628 0)
(-0.0959777 -0.114299 0)
(-0.0329158 -0.108843 0)
(-0.0155334 0.0916809 0)
(-0.0386359 0.112241 0)
(-0.0714984 0.116701 0)
(-0.0930806 0.0841449 0)
(-0.114956 0.0657715 0)
(-0.130245 0.0222413 0)
(-0.148068 -0.0197407 0)
(-0.148203 -0.109632 0)
(-0.123071 -0.182275 0)
(-0.0465244 -0.202236 0)
(-0.0401951 0.104665 0)
(-0.0727468 0.132437 0)
(-0.0882839 0.137357 0)
(-0.0967831 0.104472 0)
(-0.100727 0.0860143 0)
(-0.101723 0.0449547 0)
(-0.117463 0.00146346 0)
(-0.116358 -0.103961 0)
(-0.117608 -0.212038 0)
(-0.0519393 -0.276635 0)
(-0.0361231 0.207637 0)
(-0.0263813 0.158496 0)
(0.00405137 0.144134 0)
(0.0408213 0.0943781 0)
(0.0683431 0.0727289 0)
(0.105337 0.0359419 0)
(0.107806 -0.00334766 0)
(0.121493 -0.112871 0)
(0.0551671 -0.246632 0)
(0.0138325 -0.38001 0)
(0.147862 0.161474 0)
(0.236863 0.0895984 0)
(0.384069 0.0720547 0)
(0.457868 0.0395891 0)
(0.51414 0.0250165 0)
(0.557985 0.00607445 0)
(0.55434 -0.00779651 0)
(0.550215 -0.0457153 0)
(0.394617 -0.0901616 0)
(0.215947 -0.193636 0)
)
;

boundaryField
{
    movingWall
    {
        type            fixedValue;
        value           uniform (1 0 0);
    }
    fixedWalls
    {
        type            noSlip;
    }
    frontAndBack
    {
        type            empty;
    }
}


// ************************************************************************* //
