/*--------------------------------*- C++ -*----------------------------------*\
| =========                 |                                                 |
| \\      /  F ield         | OpenFOAM: The Open Source CFD Toolbox           |
|  \\    /   O peration     | Version:  4.1                                   |
|   \\  /    A nd           | Web:      www.OpenFOAM.org                      |
|    \\/     M anipulation  |                                                 |
\*---------------------------------------------------------------------------*/
FoamFile
{
    version     2.0;
    format      ascii;
    class       volScalarField;
    location    "0.001";
    object      p;
}
// * * * * * * * * * * * * * * * * * * * * * * * * * * * * * * * * * * * * * //

dimensions      [1 -1 -2 0 0 0 0];

internalField   nonuniform List<scalar> 
441
(
100000
99999.9
99999.7
100000
100000
99999.5
100000
100000
100000
100001
100001
100001
100001
100000
100000
100000
100000
100000
100000
100000
100000
100000
100000
100000
100000
100000
100000
100000
100000
100000
100000
100001
100000
100000
100000
100000
100000
100000
100000
100000
100000
100000
100000
99999.8
99999.9
99999.9
99999.9
99999.9
100000
100000
100000
100001
100001
100001
100001
100001
100001
100001
100001
100001
100001
100001
100001
100000
99999.7
99999.7
99999.8
99999.8
99999.9
99999.9
100000
100000
100000
100000
100000
100001
100001
100001
100001
100001
100001
100001
100001
100001
99999.8
99999.1
99999.3
99999.3
99999.4
99999.5
99999.7
99999.8
100000
100000
100000
100001
100001
100001
100001
100001
100001
100001
100001
100001
100001
99997.8
99998.7
99998.5
99998.8
99998.9
99999.1
99999.3
99999.6
99999.8
100000
100000
100001
100001
100001
100001
100001
100002
100002
100002
100002
100001
99997.2
99997.7
99997.8
99998
99998.2
99998.6
99998.9
99999.2
99999.6
100000
100000
100001
100001
100002
100002
100002
100002
100003
100002
100003
100002
99996.7
99996.9
99997
99997.3
99997.5
99997.9
99998.3
99998.8
99999.3
99999.9
100000
100001
100001
100002
100002
100003
100003
100003
100003
100004
100003
99995.6
99995.7
99995.9
99996.2
99996.6
99997.1
99997.6
99998.3
99999
99999.7
100000
100001
100002
100003
100003
100004
100004
100005
100004
100005
100004
99994.4
99994.5
99994.7
99995.1
99995.5
99996.2
99996.8
99997.7
99998.6
99999.5
100001
100001
100002
100003
100004
100005
100005
100006
100006
100006
100005
99992.6
99992.8
99993
99993.6
99994.1
99995
99995.8
99996.9
99998.1
99999.3
100001
100002
100003
100004
100005
100006
100007
100007
100008
100008
100009
99990.9
99991.1
99991.4
99992.1
99992.7
99993.7
99994.8
99996.2
99997.6
99999.1
100001
100002
100004
100005
100006
100007
100008
100009
100009
100010
100010
99988.3
99988.6
99988.9
99989.9
99990.7
99992.1
99993.5
99995.2
99996.9
99998.8
100001
100003
100005
100006
100008
100009
100010
100011
100011
100012
100010
99986.1
99986.5
99986.9
99988
99988.9
99990.6
99992.2
99994.3
99996.3
99998.6
100001
100003
100005
100007
100009
100011
100013
100013
100014
100015
100014
99981.9
99982.6
99983.1
99984.8
99986.1
99988.5
99990.5
99993.1
99995.5
99998.2
100001
100003
100006
100009
100011
100013
100016
100017
100019
100018
100017
99979.3
99980.2
99980.6
99982.7
99984.1
99987
99989.2
99992.2
99994.9
99998
100001
100004
100007
100010
100013
100015
100018
100019
100022
100021
100022
99971.8
99974
99974.6
99978.4
99980.4
99984.5
99987.3
99991
99994.1
99997.6
100001
100004
100008
100011
100015
100018
100023
100024
100031
100027
100041
99969
99971.5
99972.1
99976.5
99978.7
99983.2
99986.3
99990.4
99993.7
99997.4
100001
100004
100008
100012
100016
100019
100025
100026
100033
100033
100040
99953
99961.6
99962.9
99971.3
99974.5
99980.9
99984.6
99989.5
99993.1
99997.2
100001
100005
100009
100012
100018
100021
100029
100032
100042
100043
100055
99950
99959.5
99961.1
99970.2
99973.7
99980.4
99984.2
99989.2
99993
99997.1
100001
100005
100009
100013
100018
100021
100029
100032
100043
100044
100058
99902.8
99946.1
99950.3
99966.6
99971
99979.4
99983.4
99988.9
99992.7
99997
100001
100005
100009
100013
100019
100022
100032
100036
100054
100060
100108
)
;

boundaryField
{
    movingWall
    {
        type            zeroGradient;
    }
    fixedWalls
    {
        type            zeroGradient;
    }
    frontAndBack
    {
        type            empty;
    }
}


// ************************************************************************* //
