/*--------------------------------*- C++ -*----------------------------------*\
| =========                 |                                                 |
| \\      /  F ield         | OpenFOAM: The Open Source CFD Toolbox           |
|  \\    /   O peration     | Version:  4.1                                   |
|   \\  /    A nd           | Web:      www.OpenFOAM.org                      |
|    \\/     M anipulation  |                                                 |
\*---------------------------------------------------------------------------*/
FoamFile
{
    version     2.0;
    format      ascii;
    class       volVectorField;
    location    "6";
    object      U;
}
// * * * * * * * * * * * * * * * * * * * * * * * * * * * * * * * * * * * * * //

dimensions      [0 1 -1 0 0 0 0];

internalField   nonuniform List<vector> 
400
(
(0.000179512 -0.000176659 0)
(-0.000116766 8.92923e-05 0)
(-0.00149768 0.000320954 0)
(-0.00357775 0.000490719 0)
(-0.00613724 0.000572759 0)
(-0.00886044 0.000599331 0)
(-0.0115386 0.000575379 0)
(-0.0139465 0.000505219 0)
(-0.0158737 0.000383286 0)
(-0.0171008 0.000207638 0)
(-0.0174329 -1.62781e-05 0)
(-0.0167363 -0.000268662 0)
(-0.0149882 -0.000515023 0)
(-0.0123256 -0.000708021 0)
(-0.00905189 -0.000800868 0)
(-0.00563975 -0.000754604 0)
(-0.00260689 -0.000569144 0)
(-0.000488018 -0.000261774 0)
(0.000484996 5.41401e-05 0)
(0.000294971 0.000280307 0)
(-9.13761e-05 0.000107737 0)
(-0.00195894 0.00185153 0)
(-0.00611055 0.00345901 0)
(-0.0116984 0.0046054 0)
(-0.0182537 0.00518941 0)
(-0.0250969 0.00529748 0)
(-0.0317138 0.00496723 0)
(-0.0375601 0.0042176 0)
(-0.0421299 0.00304602 0)
(-0.0449316 0.0014771 0)
(-0.0455586 -0.000405076 0)
(-0.0437626 -0.00242951 0)
(-0.0395426 -0.00433852 0)
(-0.0332275 -0.00581434 0)
(-0.025483 -0.00654855 0)
(-0.0173071 -0.00631781 0)
(-0.0097954 -0.00510965 0)
(-0.00407716 -0.00312521 0)
(-0.000678589 -0.000986209 0)
(0.000156526 0.000517159 0)
(-0.000395025 0.00160583 0)
(-0.00408266 0.00611604 0)
(-0.0110167 0.00990257 0)
(-0.0198125 0.0125003 0)
(-0.0298074 0.0137783 0)
(-0.0400656 0.0138701 0)
(-0.0498662 0.0128486 0)
(-0.0584458 0.010756 0)
(-0.0650996 0.00761858 0)
(-0.0691598 0.00353537 0)
(-0.0700859 -0.00125534 0)
(-0.0675526 -0.00632856 0)
(-0.0615553 -0.0110776 0)
(-0.052512 -0.0147764 0)
(-0.0412805 -0.0167212 0)
(-0.0291799 -0.0164051 0)
(-0.0177008 -0.0137715 0)
(-0.00846828 -0.00927837 0)
(-0.00233214 -0.00419348 0)
(-2.77344e-05 -0.000105617 0)
(-0.000691189 0.00418633 0)
(-0.00616202 0.0125906 0)
(-0.0157644 0.0191008 0)
(-0.0275218 0.0233605 0)
(-0.0405885 0.0253374 0)
(-0.0538267 0.0252504 0)
(-0.0663847 0.0232214 0)
(-0.0773601 0.0193216 0)
(-0.0859232 0.0136179 0)
(-0.0912851 0.00630168 0)
(-0.0927939 -0.00220902 0)
(-0.0900236 -0.011201 0)
(-0.0828879 -0.0196691 0)
(-0.0717704 -0.0264048 0)
(-0.0575765 -0.0302048 0)
(-0.0418283 -0.0301558 0)
(-0.0263614 -0.0260472 0)
(-0.0133702 -0.0185454 0)
(-0.0041662 -0.00958621 0)
(-0.000211807 -0.00159414 0)
(-0.000944578 0.00782429 0)
(-0.00803645 0.0212538 0)
(-0.0200979 0.0310221 0)
(-0.0345688 0.0371261 0)
(-0.0504299 0.0397844 0)
(-0.0663787 0.0393647 0)
(-0.0814871 0.0360647 0)
(-0.0947744 0.0299902 0)
(-0.105338 0.0212468 0)
(-0.112297 0.0101111 0)
(-0.114881 -0.00282973 0)
(-0.112511 -0.01658 0)
(-0.104917 -0.0297196 0)
(-0.0923099 -0.0404957 0)
(-0.0754961 -0.0470741 0)
(-0.0560982 -0.047939 0)
(-0.0362908 -0.042508 0)
(-0.0189929 -0.0315101 0)
(-0.00619816 -0.017554 0)
(-0.000380959 -0.00403656 0)
(-0.00116322 0.0123611 0)
(-0.00967049 0.031819 0)
(-0.0239044 0.04532 0)
(-0.0407823 0.0534244 0)
(-0.0591357 0.0567567 0)
(-0.0775378 0.0559121 0)
(-0.0950319 0.0511996 0)
(-0.110612 0.0427627 0)
(-0.123348 0.030727 0)
(-0.132293 0.0154156 0)
(-0.136554 -0.00246868 0)
(-0.135349 -0.0217041 0)
(-0.128127 -0.0404881 0)
(-0.114779 -0.0564902 0)
(-0.0958313 -0.0671017 0)
(-0.0728462 -0.0699303 0)
(-0.0482724 -0.0636604 0)
(-0.0259016 -0.0487875 0)
(-0.00870138 -0.0285426 0)
(-0.000584957 -0.00754897 0)
(-0.00133989 0.0176743 0)
(-0.0110138 0.0440368 0)
(-0.027058 0.0616984 0)
(-0.0459533 0.0719607 0)
(-0.0664136 0.0759977 0)
(-0.0869322 0.0747134 0)
(-0.106567 0.068569 0)
(-0.124338 0.0577476 0)
(-0.139338 0.0423667 0)
(-0.150593 0.022736 0)
(-0.157105 -0.000412714 0)
(-0.157877 -0.0257341 0)
(-0.152014 -0.05113 0)
(-0.13895 -0.0737145 0)
(-0.118719 -0.0899849 0)
(-0.0925613 -0.0963494 0)
(-0.062991 -0.0902313 0)
(-0.0347126 -0.0713606 0)
(-0.0120013 -0.043375 0)
(-0.000872637 -0.0124565 0)
(-0.00147077 0.0235903 0)
(-0.0120205 0.0575528 0)
(-0.029432 0.0797203 0)
(-0.0498438 0.0922742 0)
(-0.071883 0.0970679 0)
(-0.0940072 0.0953944 0)
(-0.115331 0.0879144 0)
(-0.134954 0.0748566 0)
(-0.15205 0.056302 0)
(-0.165683 0.0324783 0)
(-0.174815 0.00403745 0)
(-0.178277 -0.0276952 0)
(-0.174834 -0.0604836 0)
(-0.16338 -0.0910052 0)
(-0.143247 -0.114842 0)
(-0.11499 -0.126911 0)
(-0.0807667 -0.1227 0)
(-0.0459759 -0.100295 0)
(-0.016468 -0.063134 0)
(-0.00131061 -0.0192563 0)
(-0.00155286 0.0299306 0)
(-0.0126554 0.0719802 0)
(-0.0309177 0.0988849 0)
(-0.0522238 0.113802 0)
(-0.0751357 0.119382 0)
(-0.0981195 0.117388 0)
(-0.120383 0.108736 0)
(-0.141165 0.0937182 0)
(-0.159786 0.0723641 0)
(-0.175441 0.0447602 0)
(-0.187155 0.0113708 0)
(-0.193708 -0.026667 0)
(-0.193621 -0.0672036 0)
(-0.185272 -0.106729 0)
(-0.167153 -0.140072 0)
(-0.138738 -0.160536 0)
(-0.101197 -0.16097 0)
(-0.0599799 -0.136537 0)
(-0.0224779 -0.089142 0)
(-0.00198164 -0.0286706 0)
(-0.0015929 0.0364892 0)
(-0.012935 0.0868641 0)
(-0.0314933 0.118576 0)
(-0.0529655 0.135804 0)
(-0.0758596 0.142118 0)
(-0.0986966 0.139824 0)
(-0.120815 0.130168 0)
(-0.141651 0.11354 0)
(-0.160746 0.0899236 0)
(-0.177531 0.0592353 0)
(-0.191232 0.0216684 0)
(-0.200751 -0.0219895 0)
(-0.20456 -0.0699405 0)
(-0.200678 -0.118862 0)
(-0.186792 -0.163237 0)
(-0.161005 -0.19497 0)
(-0.122788 -0.203801 0)
(-0.0764982 -0.180412 0)
(-0.0303804 -0.122742 0)
(-0.00300125 -0.0416461 0)
(-0.00162445 0.043132 0)
(-0.0129737 0.101813 0)
(-0.0312936 0.138177 0)
(-0.0521393 0.157455 0)
(-0.0739664 0.164273 0)
(-0.0954157 0.161568 0)
(-0.115998 0.150997 0)
(-0.135409 0.133097 0)
(-0.153485 0.107845 0)
(-0.169984 0.0749898 0)
(-0.184477 0.0344183 0)
(-0.196173 -0.0135486 0)
(-0.203753 -0.0677124 0)
(-0.205167 -0.12538 0)
(-0.197558 -0.181325 0)
(-0.177645 -0.226735 0)
(-0.142679 -0.24834 0)
(-0.0944355 -0.23098 0)
(-0.0403946 -0.16494 0)
(-0.00453054 -0.0593682 0)
(-0.00171254 0.0497502 0)
(-0.0130553 0.116429 0)
(-0.0307282 0.157001 0)
(-0.0501598 0.177768 0)
(-0.0697575 0.184623 0)
(-0.0883973 0.181206 0)
(-0.105821 0.169681 0)
(-0.122064 0.150784 0)
(-0.137308 0.124537 0)
(-0.151719 0.0905602 0)
(-0.165303 0.0484505 0)
(-0.177736 -0.00197823 0)
(-0.188155 -0.060289 0)
(-0.1948 -0.124814 0)
(-0.194751 -0.191355 0)
(-0.183705 -0.251508 0)
(-0.156683 -0.289968 0)
(-0.111475 -0.28532 0)
(-0.0523975 -0.215783 0)
(-0.00678478 -0.0831939 0)
(-0.00201453 0.0566711 0)
(-0.0136961 0.130786 0)
(-0.0304957 0.17468 0)
(-0.0477647 0.195884 0)
(-0.0638817 0.201927 0)
(-0.0781655 0.197216 0)
(-0.0906733 0.184511 0)
(-0.101876 0.164771 0)
(-0.112341 0.138109 0)
(-0.122671 0.104065 0)
(-0.133348 0.0620017 0)
(-0.144589 0.0112696 0)
(-0.156165 -0.0484786 0)
(-0.166935 -0.116824 0)
(-0.174511 -0.191228 0)
(-0.174267 -0.265035 0)
(-0.159717 -0.322788 0)
(-0.12388 -0.338136 0)
(-0.0655427 -0.273565 0)
(-0.0100165 -0.11452 0)
(-0.00277662 0.0641487 0)
(-0.0158521 0.144751 0)
(-0.0318365 0.190544 0)
(-0.0462224 0.210588 0)
(-0.0574235 0.214611 0)
(-0.0656099 0.20781 0)
(-0.0712803 0.193583 0)
(-0.0754734 0.173089 0)
(-0.0791564 0.146539 0)
(-0.0833667 0.113428 0)
(-0.08903 0.0729595 0)
(-0.0968947 0.024132 0)
(-0.107429 -0.0340605 0)
(-0.120313 -0.102415 0)
(-0.134246 -0.180359 0)
(-0.145136 -0.264154 0)
(-0.146412 -0.34063 0)
(-0.126563 -0.381893 0)
(-0.0777361 -0.333899 0)
(-0.0144341 -0.154281 0)
(-0.0045425 0.0744298 0)
(-0.0207777 0.159981 0)
(-0.0359428 0.205064 0)
(-0.046438 0.221175 0)
(-0.0508508 0.221263 0)
(-0.0508558 0.211195 0)
(-0.0475298 0.194935 0)
(-0.0426306 0.1737 0)
(-0.0375093 0.14773 0)
(-0.0335985 0.116465 0)
(-0.0321929 0.0790048 0)
(-0.0344896 0.0341366 0)
(-0.0416099 -0.0195788 0)
(-0.0540945 -0.0838695 0)
(-0.0720877 -0.159994 0)
(-0.0927852 -0.247713 0)
(-0.111377 -0.338481 0)
(-0.113188 -0.407904 0)
(-0.0849201 -0.389337 0)
(-0.0199895 -0.202502 0)
(-0.00815709 0.0876846 0)
(-0.0310206 0.175455 0)
(-0.0446684 0.216094 0)
(-0.0490943 0.22485 0)
(-0.0433862 0.218957 0)
(-0.0320207 0.204625 0)
(-0.0167719 0.18609 0)
(-0.000265964 0.164379 0)
(0.0158532 0.139619 0)
(0.0298546 0.111163 0)
(0.0402035 0.0780512 0)
(0.0453882 0.0390024 0)
(0.0437705 -0.00758875 0)
(0.0340745 -0.0639212 0)
(0.0146471 -0.132532 0)
(-0.0133958 -0.216382 0)
(-0.0487949 -0.313001 0)
(-0.0760089 -0.406994 0)
(-0.0803532 -0.428419 0)
(-0.0258019 -0.25595 0)
(-0.0147351 0.114248 0)
(-0.0461129 0.196622 0)
(-0.0536902 0.224712 0)
(-0.0465586 0.2197 0)
(-0.0251026 0.204652 0)
(0.00203958 0.184912 0)
(0.032603 0.164086 0)
(0.0631794 0.142507 0)
(0.0920725 0.119892 0)
(0.117461 0.0954205 0)
(0.137772 0.0680743 0)
(0.151372 0.0366202 0)
(0.15633 -0.000493371 0)
(0.150864 -0.0454553 0)
(0.132085 -0.101342 0)
(0.0994026 -0.173116 0)
(0.049422 -0.264292 0)
(-0.00430314 -0.372526 0)
(-0.0525723 -0.438002 0)
(-0.0286161 -0.309134 0)
(-0.0256469 0.14212 0)
(-0.0660314 0.208918 0)
(-0.0492041 0.21572 0)
(-0.0167219 0.19392 0)
(0.0310069 0.170056 0)
(0.0800029 0.146816 0)
(0.129019 0.125827 0)
(0.174749 0.106469 0)
(0.216152 0.0878883 0)
(0.251862 0.0691283 0)
(0.280671 0.0491858 0)
(0.301151 0.0270157 0)
(0.311433 0.00133495 0)
(0.3095 -0.0295731 0)
(0.29181 -0.0685051 0)
(0.256283 -0.120447 0)
(0.195146 -0.192762 0)
(0.117392 -0.296022 0)
(0.0170671 -0.39501 0)
(-0.0173034 -0.338609 0)
(-0.0186821 0.214866 0)
(-0.0197079 0.215446 0)
(0.056435 0.181268 0)
(0.127953 0.139714 0)
(0.204117 0.109684 0)
(0.271572 0.0874545 0)
(0.332515 0.0703708 0)
(0.385622 0.0566662 0)
(0.431281 0.0448677 0)
(0.469233 0.0339716 0)
(0.499059 0.0231301 0)
(0.519926 0.011624 0)
(0.530479 -0.00137912 0)
(0.528918 -0.016855 0)
(0.512041 -0.0367906 0)
(0.476844 -0.0645859 0)
(0.413593 -0.108448 0)
(0.323238 -0.186661 0)
(0.172763 -0.296501 0)
(0.0428857 -0.334979 0)
(0.211406 0.12965 0)
(0.297508 0.101022 0)
(0.451423 0.0674603 0)
(0.543362 0.0442292 0)
(0.617803 0.0289599 0)
(0.673314 0.0197238 0)
(0.716887 0.0137519 0)
(0.751223 0.00975299 0)
(0.778329 0.00682565 0)
(0.799207 0.00446687 0)
(0.814274 0.00234097 0)
(0.82345 0.000226389 0)
(0.826203 -0.00209855 0)
(0.821498 -0.00481959 0)
(0.807433 -0.00847961 0)
(0.781007 -0.0136716 0)
(0.734181 -0.0229016 0)
(0.658537 -0.0407458 0)
(0.498128 -0.0743893 0)
(0.288341 -0.136233 0)
)
;

boundaryField
{
    movingWall
    {
        type            fixedValue;
        value           uniform (1 0 0);
    }
    fixedWalls
    {
        type            noSlip;
    }
    frontAndBack
    {
        type            empty;
    }
}


// ************************************************************************* //
