/*--------------------------------*- C++ -*----------------------------------*\
| =========                 |                                                 |
| \\      /  F ield         | OpenFOAM: The Open Source CFD Toolbox           |
|  \\    /   O peration     | Version:  4.1                                   |
|   \\  /    A nd           | Web:      www.OpenFOAM.org                      |
|    \\/     M anipulation  |                                                 |
\*---------------------------------------------------------------------------*/
FoamFile
{
    version     2.0;
    format      ascii;
    class       volVectorField;
    location    "0.14626";
    object      U;
}
// * * * * * * * * * * * * * * * * * * * * * * * * * * * * * * * * * * * * * //

dimensions      [0 1 -1 0 0 0 0];

internalField   nonuniform List<vector> 
441
(
(0.00084719 -0.00081812 0)
(0.000206149 9.44111e-05 0)
(-0.00452925 0.000950861 0)
(-0.0121949 0.00164774 0)
(-0.022047 0.00199387 0)
(-0.0326758 0.00210852 0)
(-0.0431902 0.00200241 0)
(-0.0526137 0.00173592 0)
(-0.0602365 0.00132374 0)
(-0.0653943 0.00079305 0)
(-0.0676078 0.000167117 0)
(-0.0665488 -0.000513944 0)
(-0.0621602 -0.00119164 0)
(-0.054664 -0.00179315 0)
(-0.0446905 -0.0022239 0)
(-0.0331587 -0.00240769 0)
(-0.0214428 -0.00224866 0)
(-0.0108762 -0.00175423 0)
(-0.00314417 -0.000872215 0)
(0.00101325 9.04049e-05 0)
(0.000991069 0.000946689 0)
(7.07256e-06 -0.00026306 0)
(-0.00595266 0.00594601 0)
(-0.0206159 0.0122232 0)
(-0.0412658 0.0171282 0)
(-0.0663312 0.019795 0)
(-0.0928857 0.0204414 0)
(-0.118823 0.0192206 0)
(-0.141899 0.0164279 0)
(-0.160376 0.0122854 0)
(-0.172705 0.00705943 0)
(-0.177783 0.00106009 0)
(-0.174926 -0.00529678 0)
(-0.164083 -0.0114757 0)
(-0.145867 -0.0168427 0)
(-0.12175 -0.0206965 0)
(-0.0938564 -0.0224174 0)
(-0.0651804 -0.0214906 0)
(-0.0386689 -0.0178736 0)
(-0.0178203 -0.0117716 0)
(-0.00422707 -0.00477366 0)
(0.00032294 0.00109476 0)
(-0.000921943 0.00447544 0)
(-0.0131898 0.0207585 0)
(-0.0379825 0.035766 0)
(-0.0705946 0.047028 0)
(-0.108784 0.0530705 0)
(-0.148527 0.0541258 0)
(-0.186905 0.0505329 0)
(-0.220809 0.0429124 0)
(-0.247798 0.0318529 0)
(-0.265723 0.0180601 0)
(-0.27306 0.00238048 0)
(-0.268892 -0.0140991 0)
(-0.253166 -0.0300286 0)
(-0.226734 -0.0438467 0)
(-0.191603 -0.0538847 0)
(-0.150661 -0.0586602 0)
(-0.107975 -0.057043 0)
(-0.067586 -0.0488969 0)
(-0.0343961 -0.034892 0)
(-0.0107936 -0.0181044 0)
(-0.000442211 -0.0024362 0)
(-0.00182876 0.0129508 0)
(-0.0203686 0.0434921 0)
(-0.0550239 0.0694901 0)
(-0.0988117 0.0881269 0)
(-0.148808 0.0977282 0)
(-0.200038 0.0986675 0)
(-0.249028 0.0915608 0)
(-0.292074 0.0774184 0)
(-0.326279 0.0572796 0)
(-0.349088 0.0323868 0)
(-0.358677 0.00424111 0)
(-0.353918 -0.0252633 0)
(-0.334677 -0.0538039 0)
(-0.301858 -0.078709 0)
(-0.257725 -0.0971388 0)
(-0.205608 -0.10653 0)
(-0.150355 -0.104935 0)
(-0.0968789 -0.091951 0)
(-0.0515049 -0.0686046 0)
(-0.0175893 -0.0392653 0)
(-0.00119055 -0.00938633 0)
(-0.00257561 0.0251548 0)
(-0.0269139 0.0743292 0)
(-0.0709111 0.113663 0)
(-0.125227 0.140628 0)
(-0.186214 0.153829 0)
(-0.247986 0.154011 0)
(-0.306649 0.142218 0)
(-0.358065 0.119934 0)
(-0.399045 0.0887192 0)
(-0.42674 0.0504083 0)
(-0.439073 0.00721759 0)
(-0.434667 -0.0380796 0)
(-0.413179 -0.0820907 0)
(-0.37536 -0.120889 0)
(-0.323487 -0.150263 0)
(-0.26109 -0.166293 0)
(-0.193656 -0.165904 0)
(-0.126953 -0.148092 0)
(-0.0689561 -0.113971 0)
(-0.0242785 -0.0689603 0)
(-0.00180902 -0.019884 0)
(-0.00324692 0.0405584 0)
(-0.0329331 0.112398 0)
(-0.0856713 0.167225 0)
(-0.149841 0.203313 0)
(-0.221076 0.220041 0)
(-0.292638 0.218825 0)
(-0.360313 0.201345 0)
(-0.419666 0.169651 0)
(-0.46733 0.125862 0)
(-0.500257 0.0724022 0)
(-0.51613 0.012177 0)
(-0.513266 -0.0511878 0)
(-0.490963 -0.113226 0)
(-0.449602 -0.168682 0)
(-0.391206 -0.21179 0)
(-0.319259 -0.236951 0)
(-0.239735 -0.239519 0)
(-0.159265 -0.217362 0)
(-0.0877479 -0.171231 0)
(-0.0313981 -0.107296 0)
(-0.00243631 -0.0337729 0)
(-0.00384743 0.0589817 0)
(-0.0384691 0.157334 0)
(-0.0993273 0.229741 0)
(-0.172634 0.275728 0)
(-0.253339 0.29593 0)
(-0.333936 0.292759 0)
(-0.409997 0.268757 0)
(-0.476915 0.226642 0)
(-0.531271 0.169118 0)
(-0.569895 0.0991451 0)
(-0.590262 0.0202295 0)
(-0.590327 -0.0632525 0)
(-0.568886 -0.145833 0)
(-0.525717 -0.22091 0)
(-0.462293 -0.281001 0)
(-0.381735 -0.318441 0)
(-0.290274 -0.326434 0)
(-0.195334 -0.300972 0)
(-0.109002 -0.241781 0)
(-0.0395074 -0.155378 0)
(-0.00314938 -0.0514894 0)
(-0.00441712 0.0801628 0)
(-0.0436182 0.208558 0)
(-0.111945 0.300425 0)
(-0.19354 0.356953 0)
(-0.282713 0.380531 0)
(-0.371317 0.374911 0)
(-0.454834 0.343762 0)
(-0.528657 0.290565 0)
(-0.589454 0.218616 0)
(-0.634064 0.131312 0)
(-0.659813 0.0326026 0)
(-0.66429 -0.0725779 0)
(-0.645675 -0.177937 0)
(-0.602923 -0.275605 0)
(-0.536607 -0.356292 0)
(-0.44907 -0.409877 0)
(-0.346381 -0.426718 0)
(-0.236522 -0.399902 0)
(-0.133912 -0.327153 0)
(-0.0492775 -0.214632 0)
(-0.00407486 -0.0736845 0)
(-0.00496534 0.103906 0)
(-0.0484408 0.26555 0)
(-0.123551 0.378484 0)
(-0.212396 0.44597 0)
(-0.308682 0.472704 0)
(-0.403779 0.46415 0)
(-0.493252 0.425398 0)
(-0.572712 0.360795 0)
(-0.639113 0.274223 0)
(-0.689493 0.16938 0)
(-0.721164 0.0504422 0)
(-0.731425 -0.0773791 0)
(-0.717794 -0.207259 0)
(-0.678229 -0.33028 0)
(-0.612029 -0.435395 0)
(-0.520232 -0.509709 0)
(-0.408096 -0.539985 0)
(-0.283628 -0.515074 0)
(-0.163476 -0.429267 0)
(-0.0613502 -0.287092 0)
(-0.00532782 -0.101426 0)
(-0.00554318 0.130159 0)
(-0.0530722 0.32791 0)
(-0.134232 0.463087 0)
(-0.22901 0.541489 0)
(-0.330518 0.570823 0)
(-0.429864 0.558684 0)
(-0.522908 0.511942 0)
(-0.60578 0.435914 0)
(-0.675979 0.335063 0)
(-0.731023 0.213222 0)
(-0.768439 0.0745266 0)
(-0.785426 -0.0759007 0)
(-0.778917 -0.231133 0)
(-0.745796 -0.381612 0)
(-0.683745 -0.51482 0)
(-0.591902 -0.61497 0)
(-0.473781 -0.664572 0)
(-0.336507 -0.646626 0)
(-0.19836 -0.549964 0)
(-0.0763798 -0.375214 0)
(-0.00707395 -0.1362 0)
(-0.00620553 0.158716 0)
(-0.0578036 0.394939 0)
(-0.144328 0.552924 0)
(-0.243411 0.641503 0)
(-0.347548 0.672345 0)
(-0.447907 0.655656 0)
(-0.540924 0.600519 0)
(-0.623655 0.513329 0)
(-0.694474 0.399128 0)
(-0.751756 0.261711 0)
(-0.793577 0.104879 0)
(-0.817373 -0.0667637 0)
(-0.819726 -0.246748 0)
(-0.796556 -0.425499 0)
(-0.743688 -0.589642 0)
(-0.657798 -0.720743 0)
(-0.539468 -0.796721 0)
(-0.393584 -0.792978 0)
(-0.238666 -0.690225 0)
(-0.0950088 -0.481397 0)
(-0.00951372 -0.179739 0)
(-0.00716432 0.190204 0)
(-0.0632443 0.466881 0)
(-0.154484 0.647269 0)
(-0.255789 0.744025 0)
(-0.358994 0.774238 0)
(-0.455844 0.751297 0)
(-0.543708 0.687052 0)
(-0.621099 0.589056 0)
(-0.687647 0.462947 0)
(-0.743039 0.312299 0)
(-0.786328 0.140286 0)
(-0.81567 -0.0494682 0)
(-0.827718 -0.251617 0)
(-0.817796 -0.457412 0)
(-0.779872 -0.653635 0)
(-0.70779 -0.819994 0)
(-0.597875 -0.930115 0)
(-0.451027 -0.950264 0)
(-0.28347 -0.849883 0)
(-0.117831 -0.608237 0)
(-0.0129852 -0.234595 0)
(-0.00868498 0.224545 0)
(-0.0706125 0.542746 0)
(-0.166207 0.74378 0)
(-0.267118 0.845098 0)
(-0.364509 0.871337 0)
(-0.451633 0.839669 0)
(-0.527281 0.76533 0)
(-0.592134 0.657055 0)
(-0.647493 0.52108 0)
(-0.694863 0.360587 0)
(-0.734723 0.177882 0)
(-0.766537 -0.0248098 0)
(-0.787632 -0.243943 0)
(-0.793414 -0.472588 0)
(-0.776352 -0.699093 0)
(-0.727524 -0.902769 0)
(-0.637759 -1.05426 0)
(-0.502059 -1.10995 0)
(-0.330384 -1.02497 0)
(-0.145376 -0.756324 0)
(-0.0179282 -0.302989 0)
(-0.0115702 0.265204 0)
(-0.0817818 0.625374 0)
(-0.181073 0.842805 0)
(-0.277741 0.941893 0)
(-0.362425 0.958414 0)
(-0.431483 0.913933 0)
(-0.485705 0.827731 0)
(-0.528826 0.709561 0)
(-0.564162 0.566165 0)
(-0.595493 0.400136 0)
(-0.625092 0.212709 0)
(-0.654297 0.00439138 0)
(-0.681803 -0.223664 0)
(-0.704077 -0.467366 0)
(-0.712933 -0.718331 0)
(-0.697502 -0.957665 0)
(-0.642365 -1.15568 0)
(-0.535117 -1.25971 0)
(-0.374025 -1.20873 0)
(-0.17764 -0.926228 0)
(-0.025161 -0.389493 0)
(-0.0168239 0.311827 0)
(-0.100403 0.711609 0)
(-0.202356 0.938115 0)
(-0.288878 1.02531 0)
(-0.35062 1.02485 0)
(-0.390106 0.962938 0)
(-0.410876 0.863316 0)
(-0.420878 0.736277 0)
(-0.425625 0.588813 0)
(-0.431449 0.422713 0)
(-0.44251 0.238049 0)
(-0.462357 0.033522 0)
(-0.491605 -0.192395 0)
(-0.528919 -0.439183 0)
(-0.566757 -0.703388 0)
(-0.594185 -0.970595 0)
(-0.58979 -1.2149 0)
(-0.533555 -1.37786 0)
(-0.405424 -1.38354 0)
(-0.214041 -1.10981 0)
(-0.0356623 -0.495161 0)
(-0.0269068 0.378685 0)
(-0.129323 0.812035 0)
(-0.228243 1.03267 0)
(-0.293535 1.09062 0)
(-0.31705 1.06145 0)
(-0.312048 0.975382 0)
(-0.285281 0.860318 0)
(-0.249981 0.725884 0)
(-0.213578 0.578571 0)
(-0.184805 0.418909 0)
(-0.169302 0.245665 0)
(-0.172679 0.0558256 0)
(-0.197582 -0.154704 0)
(-0.245803 -0.389181 0)
(-0.312007 -0.650239 0)
(-0.388289 -0.930701 0)
(-0.449336 -1.21384 0)
(-0.470197 -1.44175 0)
(-0.406157 -1.53021 0)
(-0.249821 -1.30135 0)
(-0.051088 -0.630056 0)
(-0.0450905 0.457316 0)
(-0.17613 0.907276 0)
(-0.257397 1.10129 0)
(-0.280706 1.11181 0)
(-0.241196 1.04468 0)
(-0.171139 0.931785 0)
(-0.0801587 0.803295 0)
(0.012525 0.666452 0)
(0.0988184 0.526112 0)
(0.168569 0.381123 0)
(0.215842 0.228941 0)
(0.233886 0.0652864 0)
(0.218663 -0.115725 0)
(0.165024 -0.320294 0)
(0.0749011 -0.556802 0)
(-0.0506837 -0.826825 0)
(-0.186718 -1.12789 0)
(-0.31083 -1.4122 0)
(-0.349479 -1.60083 0)
(-0.276294 -1.46153 0)
(-0.0724433 -0.781894 0)
(-0.0738331 0.602945 0)
(-0.223143 1.02536 0)
(-0.24397 1.14748 0)
(-0.187925 1.07647 0)
(-0.0540884 0.957603 0)
(0.100127 0.81634 0)
(0.265852 0.679684 0)
(0.419674 0.548957 0)
(0.5556 0.425195 0)
(0.664144 0.304798 0)
(0.740923 0.183785 0)
(0.779642 0.0571338 0)
(0.776242 -0.0816984 0)
(0.723131 -0.240287 0)
(0.618866 -0.43077 0)
(0.454603 -0.662885 0)
(0.249058 -0.951555 0)
(0.00788615 -1.27038 0)
(-0.17252 -1.5685 0)
(-0.255644 -1.57603 0)
(-0.0970919 -0.979424 0)
(-0.113449 0.724979 0)
(-0.252598 1.05138 0)
(-0.11439 1.06611 0)
(0.0823834 0.913721 0)
(0.35013 0.758436 0)
(0.601242 0.610614 0)
(0.839491 0.485871 0)
(1.04316 0.378486 0)
(1.2136 0.284846 0)
(1.34542 0.199553 0)
(1.43809 0.117936 0)
(1.48766 0.0353182 0)
(1.49156 -0.053864 0)
(1.44142 -0.156206 0)
(1.33373 -0.283257 0)
(1.14947 -0.448023 0)
(0.897106 -0.676976 0)
(0.547549 -0.971437 0)
(0.202538 -1.32887 0)
(-0.13001 -1.49799 0)
(-0.105363 -1.11038 0)
(-0.0424364 1.02209 0)
(0.0571019 1.0223 0)
(0.490475 0.848212 0)
(0.851389 0.611068 0)
(1.22168 0.446855 0)
(1.51864 0.325264 0)
(1.77291 0.239017 0)
(1.9741 0.174713 0)
(2.13335 0.124458 0)
(2.25118 0.0825506 0)
(2.33119 0.0448938 0)
(2.37246 0.00826621 0)
(2.37465 -0.0306476 0)
(2.3309 -0.0759437 0)
(2.23836 -0.135079 0)
(2.07412 -0.219082 0)
(1.83876 -0.35517 0)
(1.46545 -0.567696 0)
(1.01752 -0.921726 0)
(0.371979 -1.25316 0)
(0.0358926 -1.27778 0)
(0.845203 0.576323 0)
(1.31627 0.399707 0)
(2.06225 0.261957 0)
(2.45484 0.155231 0)
(2.7769 0.0931096 0)
(2.98427 0.0568546 0)
(3.13945 0.0350799 0)
(3.24792 0.0218824 0)
(3.32644 0.0130934 0)
(3.37949 0.00683179 0)
(3.412 0.00176424 0)
(3.42478 -0.00292881 0)
(3.41867 -0.00790408 0)
(3.38962 -0.0142668 0)
(3.33621 -0.0234414 0)
(3.2397 -0.0390937 0)
(3.09748 -0.0680644 0)
(2.82744 -0.122205 0)
(2.45467 -0.231273 0)
(1.63354 -0.388073 0)
(0.924222 -0.587292 0)
)
;

boundaryField
{
    movingWall
    {
        type            fixedValue;
        value           uniform (4 0 0);
    }
    fixedWalls
    {
        type            noSlip;
    }
    frontAndBack
    {
        type            empty;
    }
}


// ************************************************************************* //
