/*--------------------------------*- C++ -*----------------------------------*\
| =========                 |                                                 |
| \\      /  F ield         | OpenFOAM: The Open Source CFD Toolbox           |
|  \\    /   O peration     | Version:  4.1                                   |
|   \\  /    A nd           | Web:      www.OpenFOAM.org                      |
|    \\/     M anipulation  |                                                 |
\*---------------------------------------------------------------------------*/
FoamFile
{
    version     2.0;
    format      ascii;
    class       volScalarField;
    location    "0.0039";
    object      p;
}
// * * * * * * * * * * * * * * * * * * * * * * * * * * * * * * * * * * * * * //

dimensions      [1 -1 -2 0 0 0 0];

internalField   nonuniform List<scalar> 
441
(
100000
99999.9
99999.7
99999.9
100000
99999.6
100000
100000
100000
100001
100001
100001
100001
100001
100001
100001
100001
100001
100001
100001
100001
100000
100000
100000
100000
100000
100000
100000
100000
100000
100000
100000
100000
100000
100000
100000
100001
100000
100001
100000
100001
100000
100000
99999.9
100000
99999.9
100000
99999.9
100000
100000
100000
100001
100001
100001
100001
100001
100001
100001
100001
100001
100001
100001
100001
100000
100000
100000
100000
100000
100000
100000
100000
100000
100000
100000
100000
100000
100001
100001
100001
100001
100001
100001
100001
100001
100000
99999.6
99999.8
99999.7
99999.8
99999.8
100000
100000
100000
100000
100000
100001
100001
100001
100001
100001
100001
100001
100001
100001
100001
99998.9
99999.6
99999.4
99999.6
99999.6
99999.8
99999.9
100000
100000
100000
100000
100001
100001
100001
100001
100001
100001
100001
100001
100001
100001
99998.6
99998.9
99999
99999.1
99999.2
99999.4
99999.6
99999.8
100000
100000
100000
100001
100001
100001
100001
100001
100001
100002
100001
100002
100000
99998.6
99998.7
99998.7
99998.9
99999
99999.2
99999.4
99999.6
99999.8
100000
100000
100001
100001
100001
100001
100001
100001
100002
100001
100002
100001
99997.9
99997.9
99998
99998.2
99998.3
99998.6
99998.9
99999.3
99999.6
100000
100000
100001
100001
100001
100002
100002
100002
100002
100002
100003
100002
99997.5
99997.5
99997.5
99997.8
99997.9
99998.3
99998.6
99999
99999.4
99999.9
100000
100001
100001
100002
100002
100002
100002
100003
100003
100003
100002
99996.4
99996.4
99996.5
99996.8
99997
99997.5
99997.9
99998.5
99999
99999.7
100000
100001
100002
100002
100003
100003
100004
100004
100004
100004
100004
99995.8
99995.8
99995.9
99996.2
99996.4
99997
99997.4
99998.1
99998.7
99999.4
100000
100001
100002
100002
100003
100004
100004
100004
100004
100005
100004
99994
99994.1
99994.2
99994.7
99995
99995.8
99996.4
99997.3
99998.1
99999.1
100000
100001
100002
100003
100004
100005
100006
100006
100006
100007
100004
99993.4
99993.4
99993.4
99994
99994.3
99995.2
99995.7
99996.7
99997.7
99998.7
99999.9
100001
100002
100003
100005
100005
100006
100007
100007
100007
100006
99990.5
99990.9
99990.8
99991.9
99992.2
99993.6
99994.3
99995.7
99996.9
99998.3
99999.8
100001
100003
100004
100006
100007
100009
100009
100010
100010
100007
99989.9
99990.3
99990
99991.2
99991.3
99992.8
99993.6
99995.1
99996.3
99997.8
99999.4
100001
100003
100004
100006
100007
100009
100010
100011
100011
100006
99984.6
99986.2
99985.6
99988.1
99988.4
99990.8
99991.8
99993.9
99995.4
99997.3
99999.2
100001
100003
100005
100008
100009
100013
100013
100020
100015
100030
99984.5
99986.1
99985
99987.4
99987.5
99990
99991
99993.2
99994.8
99996.7
99998.7
100000
100003
100004
100007
100008
100013
100013
100020
100019
100028
99972.1
99979.4
99977.7
99983.5
99983.9
99987.8
99989.3
99992.2
99994
99996.3
99998.5
100000
100003
100004
100009
100009
100016
100016
100027
100028
100042
99972.3
99980.4
99977.9
99983.1
99983.4
99987.3
99988.8
99991.7
99993.7
99995.9
99998.2
99999.8
100003
100004
100008
100008
100014
100014
100025
100027
100045
99929.7
99972.3
99970.6
99981.8
99982
99987
99988.5
99991.7
99993.7
99995.9
99998.2
99999.9
100003
100004
100008
100009
100017
100019
100038
100045
100100
)
;

boundaryField
{
    movingWall
    {
        type            zeroGradient;
    }
    fixedWalls
    {
        type            zeroGradient;
    }
    frontAndBack
    {
        type            empty;
    }
}


// ************************************************************************* //
