/*--------------------------------*- C++ -*----------------------------------*\
| =========                 |                                                 |
| \\      /  F ield         | OpenFOAM: The Open Source CFD Toolbox           |
|  \\    /   O peration     | Version:  4.1                                   |
|   \\  /    A nd           | Web:      www.OpenFOAM.org                      |
|    \\/     M anipulation  |                                                 |
\*---------------------------------------------------------------------------*/
FoamFile
{
    version     2.0;
    format      ascii;
    class       volVectorField;
    location    "0.171";
    object      U;
}
// * * * * * * * * * * * * * * * * * * * * * * * * * * * * * * * * * * * * * //

dimensions      [0 1 -1 0 0 0 0];

internalField   nonuniform List<vector> 
6400
(
(8.03239e-06 -7.99745e-06 0)
(3.03209e-05 -1.16519e-05 0)
(4.85889e-05 -8.10026e-06 0)
(5.66576e-05 1.19601e-06 0)
(5.02926e-05 1.42228e-05 0)
(2.70021e-05 2.94046e-05 0)
(-1.44425e-05 4.5594e-05 0)
(-7.43511e-05 6.19769e-05 0)
(-0.000152383 7.79819e-05 0)
(-0.000247742 9.32119e-05 0)
(-0.000359319 0.000107395 0)
(-0.000485793 0.000120349 0)
(-0.000625706 0.000131957 0)
(-0.000777512 0.000142149 0)
(-0.000939624 0.00015089 0)
(-0.00111044 0.000158169 0)
(-0.00128835 0.000163996 0)
(-0.00147178 0.000168392 0)
(-0.00165918 0.000171391 0)
(-0.00184904 0.000173032 0)
(-0.00203991 0.000173363 0)
(-0.00223039 0.000172432 0)
(-0.00241911 0.000170295 0)
(-0.00260481 0.000167006 0)
(-0.00278624 0.000162623 0)
(-0.00296225 0.000157205 0)
(-0.00313174 0.000150812 0)
(-0.00329368 0.000143503 0)
(-0.00344709 0.000135339 0)
(-0.00359109 0.000126383 0)
(-0.00372484 0.000116696 0)
(-0.00384758 0.000106339 0)
(-0.0039586 9.53773e-05 0)
(-0.00405729 8.38728e-05 0)
(-0.00414308 7.18899e-05 0)
(-0.00421549 5.94937e-05 0)
(-0.00427411 4.67497e-05 0)
(-0.00431858 3.37248e-05 0)
(-0.00434865 2.04867e-05 0)
(-0.00436412 7.10426e-06 0)
(-0.00436486 -6.3526e-06 0)
(-0.00435084 -1.98127e-05 0)
(-0.00432209 -3.32036e-05 0)
(-0.00427873 -4.64518e-05 0)
(-0.00422095 -5.94827e-05 0)
(-0.00414903 -7.22207e-05 0)
(-0.00406333 -8.45892e-05 0)
(-0.0039643 -9.6511e-05 0)
(-0.00385246 -0.000107908 0)
(-0.00372844 -0.000118703 0)
(-0.00359292 -0.000128818 0)
(-0.0034467 -0.000138174 0)
(-0.00329064 -0.000146696 0)
(-0.00312568 -0.000154307 0)
(-0.00295288 -0.000160933 0)
(-0.00277332 -0.000166502 0)
(-0.00258822 -0.000170945 0)
(-0.00239882 -0.000174197 0)
(-0.00220647 -0.000176194 0)
(-0.00201255 -0.000176879 0)
(-0.00181854 -0.000176202 0)
(-0.00162594 -0.000174116 0)
(-0.00143631 -0.000170585 0)
(-0.00125124 -0.000165581 0)
(-0.00107236 -0.000159088 0)
(-0.000901308 -0.000151102 0)
(-0.000739706 -0.000141639 0)
(-0.000589169 -0.000130736 0)
(-0.000451264 -0.000118455 0)
(-0.00032748 -0.000104897 0)
(-0.000219188 -9.02109e-05 0)
(-0.000127589 -7.461e-05 0)
(-5.36366e-05 -5.83959e-05 0)
(2.05723e-06 -4.19924e-05 0)
(3.93625e-05 -2.59908e-05 0)
(5.88163e-05 -1.12146e-05 0)
(6.18765e-05 1.19747e-06 0)
(5.12401e-05 9.71077e-06 0)
(3.12772e-05 1.24155e-05 0)
(8.16733e-06 8.10076e-06 0)
(1.18153e-05 -3.02608e-05 0)
(4.56184e-05 -4.5137e-05 0)
(6.53842e-05 -2.70179e-05 0)
(5.68168e-05 1.37674e-05 0)
(9.86216e-06 6.90012e-05 0)
(-8.16141e-05 0.000132557 0)
(-0.000220828 0.00019997 0)
(-0.000408776 0.000268039 0)
(-0.000644807 0.000334488 0)
(-0.000927067 0.000397717 0)
(-0.00125283 0.000456618 0)
(-0.00161874 0.00051044 0)
(-0.00202105 0.000558695 0)
(-0.00245568 0.000601082 0)
(-0.00291841 0.000637445 0)
(-0.00340494 0.000667732 0)
(-0.0039109 0.000691969 0)
(-0.00443199 0.000710241 0)
(-0.00496395 0.000722675 0)
(-0.00550261 0.000729434 0)
(-0.00604392 0.000730705 0)
(-0.00658396 0.000726692 0)
(-0.00711895 0.000717616 0)
(-0.00764528 0.000703706 0)
(-0.0081595 0.000685202 0)
(-0.00865833 0.000662347 0)
(-0.00913865 0.000635389 0)
(-0.00959755 0.000604582 0)
(-0.0100323 0.000570181 0)
(-0.0104403 0.000532442 0)
(-0.0108192 0.000491627 0)
(-0.0111669 0.000447997 0)
(-0.0114814 0.000401817 0)
(-0.0117609 0.000353355 0)
(-0.0120038 0.00030288 0)
(-0.0122087 0.000250668 0)
(-0.0123745 0.000196995 0)
(-0.0125002 0.000142142 0)
(-0.012585 8.63947e-05 0)
(-0.0126284 3.00443e-05 0)
(-0.0126301 -2.66148e-05 0)
(-0.0125899 -8.32826e-05 0)
(-0.012508 -0.000139655 0)
(-0.0123848 -0.000195421 0)
(-0.0122207 -0.000250268 0)
(-0.0120165 -0.000303878 0)
(-0.0117734 -0.00035593 0)
(-0.0114926 -0.000406098 0)
(-0.0111756 -0.000454058 0)
(-0.0108242 -0.000499481 0)
(-0.0104403 -0.000542042 0)
(-0.0100262 -0.000581416 0)
(-0.00958425 -0.000617281 0)
(-0.00911726 -0.000649321 0)
(-0.00862809 -0.000677227 0)
(-0.00811988 -0.000700699 0)
(-0.00759597 -0.000719449 0)
(-0.00705992 -0.000733203 0)
(-0.00651544 -0.000741704 0)
(-0.00596644 -0.000744716 0)
(-0.00541698 -0.000742027 0)
(-0.00487127 -0.000733452 0)
(-0.00433361 -0.000718843 0)
(-0.00380838 -0.000698089 0)
(-0.00330004 -0.000671128 0)
(-0.00281304 -0.000637958 0)
(-0.00235179 -0.000598647 0)
(-0.00192063 -0.000553353 0)
(-0.00152372 -0.000502351 0)
(-0.00116497 -0.000446061 0)
(-0.000847918 -0.000385102 0)
(-0.000575602 -0.00032035 0)
(-0.000350358 -0.000253033 0)
(-0.000173578 -0.000184855 0)
(-4.53916e-05 -0.000118171 0)
(3.57504e-05 -5.62174e-05 0)
(7.36116e-05 -3.42004e-06 0)
(7.48089e-05 3.42549e-05 0)
(4.97163e-05 4.89639e-05 0)
(1.26764e-05 3.11404e-05 0)
(8.46422e-06 -4.87053e-05 0)
(2.82866e-05 -6.4967e-05 0)
(2.11467e-05 -1.93905e-05 0)
(-3.13993e-05 6.84167e-05 0)
(-0.000142791 0.000183357 0)
(-0.000321483 0.000314097 0)
(-0.000572076 0.000452239 0)
(-0.000896119 0.000591632 0)
(-0.00129282 0.000727816 0)
(-0.00175961 0.000857585 0)
(-0.00229257 0.00097867 0)
(-0.00288682 0.0010895 0)
(-0.00353676 0.00118901 0)
(-0.00423633 0.00127654 0)
(-0.00497913 0.0013517 0)
(-0.00575856 0.00141435 0)
(-0.00656796 0.00146448 0)
(-0.00740066 0.00150223 0)
(-0.00825004 0.00152784 0)
(-0.00910962 0.00154161 0)
(-0.00997304 0.00154392 0)
(-0.0108342 0.00153516 0)
(-0.011687 0.00151578 0)
(-0.0125259 0.00148624 0)
(-0.0133454 0.00144705 0)
(-0.0141402 0.00139869 0)
(-0.0149055 0.0013417 0)
(-0.0156367 0.00127658 0)
(-0.0163292 0.00120389 0)
(-0.0169792 0.00112415 0)
(-0.0175827 0.00103791 0)
(-0.0181364 0.000945738 0)
(-0.0186372 0.000848179 0)
(-0.0190821 0.000745804 0)
(-0.0194687 0.000639184 0)
(-0.0197948 0.000528899 0)
(-0.0200585 0.000415536 0)
(-0.0202583 0.000299693 0)
(-0.0203929 0.000181974 0)
(-0.0204616 6.29933e-05 0)
(-0.0204637 -5.66234e-05 0)
(-0.0203993 -0.000176242 0)
(-0.0202683 -0.000295219 0)
(-0.0200715 -0.0004129 0)
(-0.0198097 -0.000528623 0)
(-0.0194842 -0.000641717 0)
(-0.0190967 -0.000751506 0)
(-0.0186492 -0.000857308 0)
(-0.0181442 -0.000958437 0)
(-0.0175844 -0.00105421 0)
(-0.016973 -0.00114394 0)
(-0.0163136 -0.00122694 0)
(-0.01561 -0.00130256 0)
(-0.0148666 -0.00137012 0)
(-0.0140878 -0.00142899 0)
(-0.0132788 -0.00147854 0)
(-0.0124448 -0.00151818 0)
(-0.0115913 -0.00154735 0)
(-0.0107243 -0.00156551 0)
(-0.00984983 -0.0015722 0)
(-0.00897433 -0.00156698 0)
(-0.00810433 -0.00154949 0)
(-0.00724657 -0.00151944 0)
(-0.00640785 -0.00147663 0)
(-0.00559508 -0.00142096 0)
(-0.00481511 -0.00135246 0)
(-0.00407472 -0.00127131 0)
(-0.00338051 -0.00117789 0)
(-0.00273878 -0.0010728 0)
(-0.00215539 -0.000956965 0)
(-0.0016356 -0.00083169 0)
(-0.00118384 -0.0006988 0)
(-0.000803455 -0.000560799 0)
(-0.000496345 -0.000421094 0)
(-0.000262565 -0.000284298 0)
(-9.97816e-05 -0.000156624 0)
(-2.62283e-06 -4.64004e-05 0)
(3.8046e-05 3.53162e-05 0)
(3.61394e-05 7.4035e-05 0)
(1.02648e-05 5.12726e-05 0)
(-5.63893e-07 -5.7285e-05 0)
(-1.14329e-05 -5.7115e-05 0)
(-6.48135e-05 3.28818e-05 0)
(-0.000180834 0.000184852 0)
(-0.000374475 0.00037712 0)
(-0.000655273 0.000593104 0)
(-0.00102847 0.000820261 0)
(-0.0014958 0.0010492 0)
(-0.00205623 0.00127296 0)
(-0.00270658 0.00148642 0)
(-0.00344196 0.00168588 0)
(-0.00425626 0.00186872 0)
(-0.0051424 0.00203311 0)
(-0.00609264 0.00217788 0)
(-0.00709879 0.0023023 0)
(-0.00815234 0.00240604 0)
(-0.00924464 0.00248902 0)
(-0.010367 0.00255142 0)
(-0.0115108 0.00259356 0)
(-0.0126674 0.00261591 0)
(-0.0138286 0.00261903 0)
(-0.0149862 0.00260357 0)
(-0.0161322 0.00257025 0)
(-0.0172592 0.00251982 0)
(-0.0183599 0.0024531 0)
(-0.0194272 0.00237092 0)
(-0.0204548 0.00227412 0)
(-0.0214363 0.00216361 0)
(-0.0223659 0.00204026 0)
(-0.0232382 0.00190498 0)
(-0.0240481 0.00175871 0)
(-0.0247911 0.00160238 0)
(-0.0254629 0.00143693 0)
(-0.0260597 0.00126333 0)
(-0.0265782 0.00108254 0)
(-0.0270153 0.000895549 0)
(-0.0273687 0.000703359 0)
(-0.0276363 0.000506981 0)
(-0.0278164 0.000307444 0)
(-0.027908 0.000105793 0)
(-0.0279103 -9.69113e-05 0)
(-0.0278232 -0.000299592 0)
(-0.027647 -0.000501157 0)
(-0.0273824 -0.000700498 0)
(-0.0270306 -0.000896493 0)
(-0.0265935 -0.00108801 0)
(-0.0260733 -0.0012739 0)
(-0.0254726 -0.00145302 0)
(-0.0247948 -0.00162421 0)
(-0.0240437 -0.00178632 0)
(-0.0232233 -0.0019382 0)
(-0.0223386 -0.0020787 0)
(-0.0213947 -0.00220671 0)
(-0.0203973 -0.00232112 0)
(-0.0193525 -0.00242086 0)
(-0.018267 -0.0025049 0)
(-0.0171478 -0.00257225 0)
(-0.0160023 -0.00262198 0)
(-0.0148383 -0.00265324 0)
(-0.0136639 -0.00266524 0)
(-0.0124875 -0.0026573 0)
(-0.0113178 -0.00262883 0)
(-0.0101635 -0.00257941 0)
(-0.00903367 -0.00250873 0)
(-0.00793724 -0.00241668 0)
(-0.00688317 -0.00230338 0)
(-0.00588023 -0.00216918 0)
(-0.00493695 -0.00201479 0)
(-0.00406139 -0.00184129 0)
(-0.00326103 -0.00165026 0)
(-0.00254254 -0.00144392 0)
(-0.00191147 -0.00122529 0)
(-0.00137201 -0.000998451 0)
(-0.000926524 -0.000768827 0)
(-0.000575147 -0.000543621 0)
(-0.000315179 -0.00033233 0)
(-0.000140432 -0.000147413 0)
(-4.05131e-05 -5.08696e-06 0)
(2.06003e-07 7.37325e-05 0)
(2.19114e-06 6.2513e-05 0)
(-1.33254e-05 -5.18384e-05 0)
(-6.5635e-05 -1.16089e-05 0)
(-0.000178102 0.00014323 0)
(-0.000371085 0.000378145 0)
(-0.000659805 0.000665686 0)
(-0.00105387 0.000984399 0)
(-0.00155843 0.0013177 0)
(-0.00217499 0.00165291 0)
(-0.00290203 0.00198041 0)
(-0.00373569 0.00229301 0)
(-0.00467021 0.00258538 0)
(-0.00569836 0.00285366 0)
(-0.00681182 0.00309513 0)
(-0.00800143 0.00330793 0)
(-0.00925745 0.00349093 0)
(-0.0105698 0.00364349 0)
(-0.011928 0.00376543 0)
(-0.0133217 0.00385691 0)
(-0.0147405 0.00391832 0)
(-0.0161741 0.00395029 0)
(-0.0176122 0.00395361 0)
(-0.0190451 0.00392919 0)
(-0.0204632 0.00387806 0)
(-0.0218571 0.00380131 0)
(-0.023218 0.00370013 0)
(-0.0245375 0.00357573 0)
(-0.0258074 0.0034294 0)
(-0.0270202 0.00326243 0)
(-0.0281687 0.00307616 0)
(-0.0292462 0.00287195 0)
(-0.0302465 0.00265119 0)
(-0.031164 0.00241527 0)
(-0.0319935 0.00216564 0)
(-0.0327302 0.00190372 0)
(-0.0333701 0.001631 0)
(-0.0339095 0.00134895 0)
(-0.0343454 0.00105908 0)
(-0.0346753 0.000762931 0)
(-0.0348971 0.000462049 0)
(-0.0350097 0.000158013 0)
(-0.035012 -0.000147576 0)
(-0.0349039 -0.000453092 0)
(-0.0346858 -0.00075689 0)
(-0.0343586 -0.0010573 0)
(-0.0339239 -0.00135263 0)
(-0.0333839 -0.00164119 0)
(-0.0327412 -0.00192124 0)
(-0.0319994 -0.00219107 0)
(-0.0311623 -0.00244894 0)
(-0.0302347 -0.00269312 0)
(-0.0292218 -0.00292191 0)
(-0.0281293 -0.00313358 0)
(-0.0269637 -0.00332648 0)
(-0.025732 -0.00349897 0)
(-0.0244417 -0.00364945 0)
(-0.0231008 -0.0037764 0)
(-0.021718 -0.00387837 0)
(-0.0203023 -0.00395398 0)
(-0.0188632 -0.004002 0)
(-0.0174105 -0.00402129 0)
(-0.0159545 -0.00401086 0)
(-0.0145057 -0.00396991 0)
(-0.0130746 -0.00389784 0)
(-0.0116722 -0.00379427 0)
(-0.0103092 -0.0036591 0)
(-0.00899636 -0.00349259 0)
(-0.00774419 -0.00329535 0)
(-0.00656284 -0.0030685 0)
(-0.00546191 -0.00281374 0)
(-0.00445026 -0.00253346 0)
(-0.00353575 -0.00223098 0)
(-0.00272497 -0.00191071 0)
(-0.00202289 -0.00157851 0)
(-0.00143246 -0.00124202 0)
(-0.00095413 -0.000911201 0)
(-0.000585322 -0.000598895 0)
(-0.000319761 -0.000321619 0)
(-0.00014681 -0.000100433 0)
(-5.04117e-05 3.80462e-05 0)
(-9.66883e-06 6.06723e-05 0)
(-2.83503e-05 -2.98358e-05 0)
(-0.000128641 7.79093e-05 0)
(-0.000308331 0.000320591 0)
(-0.000587197 0.000658604 0)
(-0.000979822 0.00105973 0)
(-0.00149511 0.00149824 0)
(-0.00213753 0.00195382 0)
(-0.00290787 0.00241064 0)
(-0.00380388 0.00285645 0)
(-0.00482088 0.00328191 0)
(-0.00595217 0.00367999 0)
(-0.00718948 0.00404547 0)
(-0.00852335 0.00437459 0)
(-0.00994336 0.00466476 0)
(-0.0114384 0.00491429 0)
(-0.012997 0.00512222 0)
(-0.0146072 0.00528819 0)
(-0.0162571 0.00541229 0)
(-0.0179348 0.00549498 0)
(-0.0196283 0.00553705 0)
(-0.0213259 0.00553949 0)
(-0.0230162 0.00550352 0)
(-0.0246881 0.00543049 0)
(-0.0263308 0.0053219 0)
(-0.0279341 0.00517933 0)
(-0.029488 0.00500447 0)
(-0.0309831 0.00479904 0)
(-0.0324106 0.00456486 0)
(-0.0337622 0.00430376 0)
(-0.03503 0.00401764 0)
(-0.0362068 0.00370841 0)
(-0.0372859 0.00337805 0)
(-0.0382613 0.00302853 0)
(-0.0391275 0.00266187 0)
(-0.0398797 0.00228014 0)
(-0.0405137 0.00188539 0)
(-0.0410259 0.00147976 0)
(-0.0414134 0.00106538 0)
(-0.0416738 0.00064442 0)
(-0.0418057 0.000219096 0)
(-0.041808 -0.000208355 0)
(-0.0416805 -0.000635662 0)
(-0.0414236 -0.00106052 0)
(-0.0410385 -0.00148061 0)
(-0.0405271 -0.00189356 0)
(-0.0398918 -0.002297 0)
(-0.0391359 -0.00268853 0)
(-0.0382634 -0.00306576 0)
(-0.037279 -0.00342628 0)
(-0.0361881 -0.00376769 0)
(-0.0349969 -0.0040876 0)
(-0.033712 -0.00438366 0)
(-0.0323409 -0.00465357 0)
(-0.0308919 -0.00489504 0)
(-0.0293736 -0.00510592 0)
(-0.0277956 -0.00528408 0)
(-0.0261676 -0.00542756 0)
(-0.0245003 -0.00553449 0)
(-0.0228047 -0.00560317 0)
(-0.0210921 -0.00563208 0)
(-0.0193744 -0.00561991 0)
(-0.0176636 -0.00556561 0)
(-0.0159722 -0.00546841 0)
(-0.0143124 -0.00532787 0)
(-0.0126967 -0.00514395 0)
(-0.0111375 -0.00491707 0)
(-0.00964668 -0.00464819 0)
(-0.0082359 -0.00433893 0)
(-0.0069161 -0.0039917 0)
(-0.00569737 -0.00360984 0)
(-0.0045887 -0.00319789 0)
(-0.00359765 -0.00276178 0)
(-0.00273005 -0.00230927 0)
(-0.00198958 -0.00185031 0)
(-0.00137735 -0.0013976 0)
(-0.000891323 -0.000967237 0)
(-0.000525767 -0.000579525 0)
(-0.000270567 -0.000259819 0)
(-0.000110104 -3.95115e-05 0)
(-2.38627e-05 4.31544e-05 0)
(-4.46147e-05 1.01244e-05 0)
(-0.000196503 0.000215242 0)
(-0.000448181 0.000570612 0)
(-0.000818432 0.001033 0)
(-0.00132065 0.00156643 0)
(-0.00196248 0.00214159 0)
(-0.00274723 0.0027349 0)
(-0.00367457 0.0033276 0)
(-0.00474126 0.00390496 0)
(-0.00594157 0.00445554 0)
(-0.00726781 0.00497056 0)
(-0.00871065 0.00544343 0)
(-0.0102595 0.00586929 0)
(-0.0119028 0.00624472 0)
(-0.0136282 0.00656744 0)
(-0.0154229 0.0068361 0)
(-0.0172737 0.0070501 0)
(-0.0191673 0.00720946 0)
(-0.0210903 0.00731469 0)
(-0.0230296 0.00736669 0)
(-0.0249719 0.00736671 0)
(-0.0269044 0.00731626 0)
(-0.0288148 0.00721706 0)
(-0.0306909 0.00707102 0)
(-0.0325211 0.00688018 0)
(-0.0342944 0.00664672 0)
(-0.036 0.00637291 0)
(-0.037628 0.00606109 0)
(-0.039169 0.0057137 0)
(-0.0406142 0.00533321 0)
(-0.0419553 0.00492216 0)
(-0.043185 0.00448314 0)
(-0.0442962 0.00401878 0)
(-0.0452829 0.00353174 0)
(-0.0461396 0.00302475 0)
(-0.0468616 0.00250057 0)
(-0.0474447 0.00196199 0)
(-0.0478857 0.00141186 0)
(-0.0481821 0.000853059 0)
(-0.0483319 0.000288521 0)
(-0.0483343 -0.000278788 0)
(-0.0481888 -0.000845856 0)
(-0.047896 -0.00140963 0)
(-0.0474572 -0.00196704 0)
(-0.0468746 -0.00251495 0)
(-0.0461509 -0.00305022 0)
(-0.0452899 -0.0035697 0)
(-0.0442961 -0.00407022 0)
(-0.0431748 -0.0045486 0)
(-0.0419321 -0.00500167 0)
(-0.0405749 -0.00542632 0)
(-0.0391108 -0.00581944 0)
(-0.0375484 -0.006178 0)
(-0.0358967 -0.00649904 0)
(-0.0341657 -0.00677971 0)
(-0.0323659 -0.00701727 0)
(-0.0305085 -0.00720914 0)
(-0.0286054 -0.00735291 0)
(-0.0266689 -0.00744639 0)
(-0.0247117 -0.00748765 0)
(-0.0227472 -0.00747502 0)
(-0.0207888 -0.00740718 0)
(-0.0188504 -0.00728319 0)
(-0.0169457 -0.00710258 0)
(-0.0150886 -0.00686538 0)
(-0.0132929 -0.00657222 0)
(-0.0115718 -0.00622447 0)
(-0.00993836 -0.00582431 0)
(-0.00840468 -0.00537494 0)
(-0.00698205 -0.00488073 0)
(-0.00568054 -0.00434751 0)
(-0.00450874 -0.00378284 0)
(-0.00347344 -0.00319637 0)
(-0.00257926 -0.00260034 0)
(-0.00182823 -0.00201012 0)
(-0.00121928 -0.00144483 0)
(-0.000747707 -0.000928145 0)
(-0.000404466 -0.0004891 0)
(-0.000174926 -0.000162902 0)
(-3.93652e-05 8.48369e-06 0)
(-6.14344e-05 6.86714e-05 0)
(-0.000266562 0.000402359 0)
(-0.000592617 0.000896485 0)
(-0.00105725 0.00150538 0)
(-0.00167237 0.00219025 0)
(-0.00244397 0.00291888 0)
(-0.00337382 0.0036649 0)
(-0.00446019 0.004407 0)
(-0.00569855 0.00512815 0)
(-0.00708197 0.00581491 0)
(-0.00860161 0.00645684 0)
(-0.010247 0.00704596 0)
(-0.0120065 0.00757632 0)
(-0.0138674 0.00804364 0)
(-0.0158161 0.00844501 0)
(-0.0178387 0.00877866 0)
(-0.0199208 0.00904373 0)
(-0.0220478 0.00924013 0)
(-0.0242052 0.0093684 0)
(-0.0263784 0.00942958 0)
(-0.028553 0.00942516 0)
(-0.0307152 0.00935696 0)
(-0.0328511 0.0092271 0)
(-0.0349475 0.00903791 0)
(-0.0369916 0.00879195 0)
(-0.0389713 0.00849192 0)
(-0.0408748 0.00814068 0)
(-0.0426911 0.00774118 0)
(-0.0444098 0.00729647 0)
(-0.0460213 0.0068097 0)
(-0.0475165 0.00628408 0)
(-0.0488871 0.00572288 0)
(-0.0501255 0.00512946 0)
(-0.0512249 0.00450722 0)
(-0.0521794 0.0038596 0)
(-0.0529836 0.00319013 0)
(-0.0536332 0.00250238 0)
(-0.0541244 0.00179995 0)
(-0.0544544 0.00108654 0)
(-0.0546212 0.000365871 0)
(-0.0546238 -0.000358276 0)
(-0.0544617 -0.00108207 0)
(-0.0541357 -0.00180162 0)
(-0.053647 -0.00251301 0)
(-0.0529981 -0.00321227 0)
(-0.0521921 -0.00389542 0)
(-0.0512331 -0.00455843 0)
(-0.0501261 -0.00519729 0)
(-0.048877 -0.00580798 0)
(-0.0474925 -0.00638649 0)
(-0.0459801 -0.00692886 0)
(-0.0443484 -0.00743119 0)
(-0.0426066 -0.00788963 0)
(-0.0407648 -0.00830047 0)
(-0.038834 -0.00866011 0)
(-0.0368256 -0.00896512 0)
(-0.0347522 -0.00921227 0)
(-0.0326265 -0.00939856 0)
(-0.0304621 -0.00952127 0)
(-0.0282732 -0.00957799 0)
(-0.0260742 -0.00956669 0)
(-0.0238799 -0.00948578 0)
(-0.0217054 -0.00933416 0)
(-0.0195659 -0.00911129 0)
(-0.0174764 -0.00881732 0)
(-0.015452 -0.00845312 0)
(-0.0135074 -0.00802049 0)
(-0.0116565 -0.00752224 0)
(-0.0099128 -0.00696239 0)
(-0.0082887 -0.00634639 0)
(-0.00679538 -0.0056814 0)
(-0.00544253 -0.00497657 0)
(-0.00423806 -0.00424347 0)
(-0.0031877 -0.00349652 0)
(-0.00229468 -0.00275355 0)
(-0.00155922 -0.00203644 0)
(-0.000978004 -0.00137181 0)
(-0.000543439 -0.000791694 0)
(-0.000242192 -0.00033426 0)
(-5.54847e-05 -4.40383e-05 0)
(-7.83661e-05 0.00014593 0)
(-0.000337074 0.000639976 0)
(-0.000738278 0.00129965 0)
(-0.00129851 0.00207779 0)
(-0.00202804 0.00293359 0)
(-0.00293101 0.00383259 0)
(-0.00400739 0.0047461 0)
(-0.0052538 0.0056506 0)
(-0.00666418 0.00652704 0)
(-0.00823024 0.00736017 0)
(-0.00994188 0.00813798 0)
(-0.0117874 0.00885116 0)
(-0.013754 0.00949269 0)
(-0.0158278 0.0100574 0)
(-0.0179942 0.0105419 0)
(-0.0202381 0.0109438 0)
(-0.0225438 0.0112621 0)
(-0.0248959 0.0114965 0)
(-0.0272784 0.0116477 0)
(-0.0296758 0.0117168 0)
(-0.0320726 0.0117054 0)
(-0.0344537 0.0116159 0)
(-0.0368043 0.0114506 0)
(-0.03911 0.0112125 0)
(-0.041357 0.0109046 0)
(-0.0435322 0.0105302 0)
(-0.0456229 0.0100927 0)
(-0.0476171 0.00959575 0)
(-0.0495036 0.00904312 0)
(-0.051272 0.00843865 0)
(-0.0529123 0.00778628 0)
(-0.0544157 0.00709005 0)
(-0.0557739 0.00635409 0)
(-0.0569795 0.00558258 0)
(-0.058026 0.00477979 0)
(-0.0589077 0.00395006 0)
(-0.0596199 0.0030978 0)
(-0.0601584 0.00222748 0)
(-0.0605203 0.00134363 0)
(-0.0607034 0.000450872 0)
(-0.0607065 -0.000446129 0)
(-0.0605292 -0.00134264 0)
(-0.0601723 -0.00223387 0)
(-0.0596371 -0.00311499 0)
(-0.0589264 -0.0039811 0)
(-0.0580434 -0.00482729 0)
(-0.0569928 -0.00564861 0)
(-0.0557798 -0.00644012 0)
(-0.0544108 -0.00719688 0)
(-0.0528931 -0.00791396 0)
(-0.0512349 -0.0085865 0)
(-0.0494454 -0.0092097 0)
(-0.0475346 -0.00977888 0)
(-0.0455135 -0.0102895 0)
(-0.0433937 -0.0107371 0)
(-0.041188 -0.0111176 0)
(-0.0389096 -0.0114269 0)
(-0.0365724 -0.0116616 0)
(-0.0341912 -0.0118182 0)
(-0.031781 -0.0118939 0)
(-0.0293576 -0.0118862 0)
(-0.026937 -0.0117933 0)
(-0.0245353 -0.011614 0)
(-0.0221689 -0.0113475 0)
(-0.0198543 -0.0109942 0)
(-0.0176075 -0.0105552 0)
(-0.0154443 -0.0100328 0)
(-0.0133801 -0.00943033 0)
(-0.0114294 -0.00875275 0)
(-0.00960571 -0.00800658 0)
(-0.00792146 -0.00720028 0)
(-0.00638751 -0.00634457 0)
(-0.005013 -0.00545283 0)
(-0.003805 -0.00454154 0)
(-0.00276814 -0.00363078 0)
(-0.00190419 -0.00274485 0)
(-0.00121147 -0.00191285 0)
(-0.000684085 -0.00116928 0)
(-0.000310133 -0.000554456 0)
(-7.177e-05 -0.000114599 0)
(-9.5134e-05 0.00024171 0)
(-0.000406945 0.000927974 0)
(-0.000882998 0.00178035 0)
(-0.00153882 0.00275088 0)
(-0.00238301 0.00379741 0)
(-0.00341775 0.00488376 0)
(-0.00464104 0.00597944 0)
(-0.00604765 0.00705908 0)
(-0.00762985 0.00810185 0)
(-0.00937783 0.00909091 0)
(-0.0112801 0.0100128 0)
(-0.0133236 0.010857 0)
(-0.0154944 0.0116155 0)
(-0.0177774 0.0122824 0)
(-0.0201568 0.0128535 0)
(-0.0226165 0.0133262 0)
(-0.0251398 0.0136991 0)
(-0.0277099 0.0139719 0)
(-0.0303102 0.0141451 0)
(-0.0329238 0.0142202 0)
(-0.0355342 0.0141991 0)
(-0.0381254 0.0140844 0)
(-0.0406816 0.0138788 0)
(-0.0431874 0.0135859 0)
(-0.0456281 0.0132092 0)
(-0.0479896 0.0127526 0)
(-0.0502584 0.0122202 0)
(-0.0524218 0.0116164 0)
(-0.0544677 0.0109456 0)
(-0.0563849 0.0102125 0)
(-0.0581629 0.0094217 0)
(-0.0597921 0.00857817 0)
(-0.0612638 0.00768682 0)
(-0.06257 0.0067527 0)
(-0.0637038 0.00578095 0)
(-0.064659 0.00477679 0)
(-0.0654306 0.00374552 0)
(-0.0660142 0.00269254 0)
(-0.0664065 0.00162332 0)
(-0.0666054 0.000543401 0)
(-0.0666095 -0.000541582 0)
(-0.0664183 -0.00162593 0)
(-0.0660327 -0.00270389 0)
(-0.0654542 -0.00376963 0)
(-0.0646855 -0.00481727 0)
(-0.0637304 -0.0058409 0)
(-0.0625936 -0.00683458 0)
(-0.0612808 -0.00779237 0)
(-0.0597989 -0.00870833 0)
(-0.0581555 -0.00957656 0)
(-0.0563596 -0.0103912 0)
(-0.0544208 -0.0111466 0)
(-0.0523498 -0.0118371 0)
(-0.0501585 -0.0124572 0)
(-0.0478592 -0.0130016 0)
(-0.0454654 -0.0134655 0)
(-0.0429913 -0.0138441 0)
(-0.0404519 -0.0141331 0)
(-0.0378628 -0.0143286 0)
(-0.0352401 -0.0144272 0)
(-0.0326006 -0.014426 0)
(-0.0299612 -0.0143229 0)
(-0.0273395 -0.0141163 0)
(-0.0247527 -0.0138056 0)
(-0.0222185 -0.0133913 0)
(-0.0197541 -0.0128746 0)
(-0.0173765 -0.0122583 0)
(-0.0151021 -0.0115464 0)
(-0.0129466 -0.0107447 0)
(-0.0109249 -0.0098608 0)
(-0.00905045 -0.00890437 0)
(-0.00733553 -0.00788764 0)
(-0.00579063 -0.00682569 0)
(-0.0044243 -0.00573688 0)
(-0.00324275 -0.0046433 0)
(-0.00224951 -0.00357136 0)
(-0.0014447 -0.00255223 0)
(-0.000824219 -0.00162231 0)
(-0.000377638 -0.000823529 0)
(-8.794e-05 -0.000203063 0)
(-0.000111577 0.000355636 0)
(-0.000475531 0.00126571 0)
(-0.00102546 0.00233801 0)
(-0.00177605 0.00352429 0)
(-0.00273428 0.00478155 0)
(-0.00390033 0.00607242 0)
(-0.00527012 0.00736497 0)
(-0.00683649 0.00863233 0)
(-0.00858987 0.00985219 0)
(-0.0105188 0.0110063 0)
(-0.0126103 0.01208 0)
(-0.0148499 0.0130617 0)
(-0.0172224 0.0139423 0)
(-0.0197114 0.0147153 0)
(-0.0223001 0.0153759 0)
(-0.0249712 0.0159211 0)
(-0.027707 0.0163494 0)
(-0.0304897 0.0166602 0)
(-0.0333014 0.0168543 0)
(-0.0361246 0.0169332 0)
(-0.0389418 0.0168991 0)
(-0.0417358 0.0167548 0)
(-0.04449 0.0165039 0)
(-0.0471882 0.0161502 0)
(-0.0498149 0.0156978 0)
(-0.052355 0.0151513 0)
(-0.0547944 0.0145156 0)
(-0.0571196 0.0137957 0)
(-0.0593178 0.0129968 0)
(-0.0613771 0.0121245 0)
(-0.0632864 0.0111841 0)
(-0.0650357 0.0101815 0)
(-0.0666156 0.00912257 0)
(-0.0680178 0.00801313 0)
(-0.0692348 0.0068593 0)
(-0.0702602 0.00566724 0)
(-0.0710886 0.00444322 0)
(-0.0717154 0.0031936 0)
(-0.0721372 0.00192484 0)
(-0.0723516 0.00064349 0)
(-0.0723571 -0.000643811 0)
(-0.0721534 -0.00193034 0)
(-0.0717411 -0.00320929 0)
(-0.0711221 -0.00447379 0)
(-0.0702991 -0.00571693 0)
(-0.0692761 -0.00693172 0)
(-0.068058 -0.00811117 0)
(-0.066651 -0.00924829 0)
(-0.0650621 -0.0103361 0)
(-0.0632997 -0.0113676 0)
(-0.0613729 -0.012336 0)
(-0.059292 -0.0132345 0)
(-0.0570685 -0.0140565 0)
(-0.0547146 -0.0147957 0)
(-0.0522436 -0.0154459 0)
(-0.0496697 -0.0160012 0)
(-0.0470078 -0.0164562 0)
(-0.0442738 -0.0168058 0)
(-0.0414841 -0.0170454 0)
(-0.0386559 -0.0171712 0)
(-0.0358069 -0.0171797 0)
(-0.032955 -0.0170685 0)
(-0.0301188 -0.0168358 0)
(-0.0273167 -0.016481 0)
(-0.0245673 -0.0160045 0)
(-0.021889 -0.015408 0)
(-0.0193 -0.0146945 0)
(-0.0168178 -0.0138687 0)
(-0.0144593 -0.0129372 0)
(-0.0122407 -0.0119085 0)
(-0.0101768 -0.0107936 0)
(-0.0082812 -0.00960607 0)
(-0.00656592 -0.00836257 0)
(-0.00504112 -0.00708312 0)
(-0.00371478 -0.00579163 0)
(-0.00259225 -0.00451627 0)
(-0.00167559 -0.00328993 0)
(-0.000962529 -0.00215049 0)
(-0.000444058 -0.00114099 0)
(-0.000103832 -0.00030911 0)
(-0.000127614 0.00048724 0)
(-0.000542497 0.00165225 0)
(-0.00116496 0.00297156 0)
(-0.002009 0.00439703 0)
(-0.00308009 0.0058852 0)
(-0.0043764 0.00739787 0)
(-0.00589177 0.00890205 0)
(-0.00761699 0.0103697 0)
(-0.00954058 0.0117772 0)
(-0.0116493 0.0131053 0)
(-0.0139286 0.0143381 0)
(-0.0163626 0.0154632 0)
(-0.0189346 0.0164706 0)
(-0.0216271 0.0173532 0)
(-0.024422 0.0181056 0)
(-0.0273009 0.0187247 0)
(-0.0302451 0.0192085 0)
(-0.0332357 0.0195566 0)
(-0.036254 0.0197698 0)
(-0.0392814 0.0198498 0)
(-0.0422994 0.0197991 0)
(-0.0452903 0.019621 0)
(-0.0482363 0.0193194 0)
(-0.0511206 0.0188987 0)
(-0.0539267 0.0183637 0)
(-0.0566391 0.0177198 0)
(-0.0592428 0.0169724 0)
(-0.0617235 0.0161274 0)
(-0.064068 0.0151908 0)
(-0.0662638 0.0141689 0)
(-0.0682993 0.0130682 0)
(-0.0701637 0.0118953 0)
(-0.0718474 0.010657 0)
(-0.0733417 0.00936007 0)
(-0.0746386 0.00801165 0)
(-0.0757315 0.00661888 0)
(-0.0766147 0.00518901 0)
(-0.0772833 0.00372945 0)
(-0.0777338 0.00224769 0)
(-0.0779636 0.000751325 0)
(-0.0779712 -0.00075193 0)
(-0.0777563 -0.00225427 0)
(-0.0773194 -0.00374782 0)
(-0.0766624 -0.00522459 0)
(-0.0757883 -0.00667656 0)
(-0.0747012 -0.00809565 0)
(-0.0734063 -0.00947375 0)
(-0.0719098 -0.0108027 0)
(-0.0702193 -0.0120745 0)
(-0.0683434 -0.0132811 0)
(-0.0662918 -0.0144145 0)
(-0.0640752 -0.0154669 0)
(-0.0617056 -0.0164306 0)
(-0.0591957 -0.0172984 0)
(-0.0565596 -0.0180631 0)
(-0.0538121 -0.0187179 0)
(-0.0509688 -0.0192565 0)
(-0.0480464 -0.0196731 0)
(-0.0450622 -0.0199625 0)
(-0.0420342 -0.02012 0)
(-0.038981 -0.020142 0)
(-0.0359216 -0.0200254 0)
(-0.0328753 -0.0197683 0)
(-0.0298617 -0.01937 0)
(-0.0269005 -0.0188309 0)
(-0.0240112 -0.0181529 0)
(-0.021213 -0.0173394 0)
(-0.0185247 -0.0163957 0)
(-0.0159646 -0.0153291 0)
(-0.01355 -0.0141491 0)
(-0.0112972 -0.0128677 0)
(-0.00922126 -0.0114998 0)
(-0.00733585 -0.0100635 0)
(-0.00565283 -0.00858029 0)
(-0.00418203 -0.00707562 0)
(-0.00293075 -0.00557921 0)
(-0.00190299 -0.00412533 0)
(-0.00109833 -0.00275302 0)
(-0.000509067 -0.00150606 0)
(-0.000119365 -0.000432323 0)
(-0.000143214 0.000636016 0)
(-0.000607718 0.00208651 0)
(-0.00130119 0.00367969 0)
(-0.0022371 0.00536775 0)
(-0.00341954 0.00710708 0)
(-0.00484473 0.00885895 0)
(-0.00650441 0.0105896 0)
(-0.00838728 0.0122701 0)
(-0.0104799 0.0138759 0)
(-0.0127672 0.0153867 0)
(-0.0152329 0.0167858 0)
(-0.0178597 0.0180598 0)
(-0.0206293 0.0191983 0)
(-0.023523 0.0201935 0)
(-0.0265216 0.0210398 0)
(-0.0296053 0.0217335 0)
(-0.0327545 0.0222727 0)
(-0.0359494 0.0226569 0)
(-0.0391701 0.0228871 0)
(-0.0423973 0.0229652 0)
(-0.0456116 0.022894 0)
(-0.0487942 0.0226774 0)
(-0.051927 0.0223196 0)
(-0.054992 0.0218258 0)
(-0.0579724 0.0212014 0)
(-0.0608517 0.0204523 0)
(-0.0636143 0.019585 0)
(-0.0662455 0.018606 0)
(-0.0687314 0.0175223 0)
(-0.0710589 0.016341 0)
(-0.073216 0.0150695 0)
(-0.0751916 0.0137154 0)
(-0.0769755 0.0122864 0)
(-0.0785586 0.0107903 0)
(-0.0799328 0.00923536 0)
(-0.0810911 0.0076296 0)
(-0.0820274 0.00598139 0)
(-0.0827368 0.00429919 0)
(-0.0832156 0.00259157 0)
(-0.0834609 0.000867234 0)
(-0.0834714 -0.000864997 0)
(-0.0832464 -0.0025962 0)
(-0.0827868 -0.00431734 0)
(-0.0820944 -0.00601932 0)
(-0.0811722 -0.00769294 0)
(-0.0800244 -0.00932896 0)
(-0.0786564 -0.0109181 0)
(-0.0770749 -0.0124511 0)
(-0.0752875 -0.0139188 0)
(-0.0733031 -0.0153118 0)
(-0.0711319 -0.0166212 0)
(-0.0687849 -0.017838 0)
(-0.0662747 -0.0189536 0)
(-0.0636145 -0.0199594 0)
(-0.0608188 -0.0208474 0)
(-0.0579031 -0.0216099 0)
(-0.0548839 -0.0222396 0)
(-0.0517783 -0.0227299 0)
(-0.0486045 -0.0230748 0)
(-0.0453813 -0.0232692 0)
(-0.0421281 -0.0233086 0)
(-0.0388649 -0.0231898 0)
(-0.0356119 -0.0229104 0)
(-0.0323898 -0.0224697 0)
(-0.0292193 -0.021868 0)
(-0.0261209 -0.0211073 0)
(-0.0231152 -0.0201915 0)
(-0.0202222 -0.0191263 0)
(-0.0174613 -0.0179197 0)
(-0.0148513 -0.0165821 0)
(-0.01241 -0.0151264 0)
(-0.0101542 -0.0135687 0)
(-0.00809896 -0.0119283 0)
(-0.00625816 -0.010228 0)
(-0.0046435 -0.00849473 0)
(-0.00326427 -0.00675942 0)
(-0.00212644 -0.00505748 0)
(-0.00123136 -0.00342886 0)
(-0.000572561 -0.00191783 0)
(-0.000134515 -0.000572255 0)
(-0.000158383 0.000801464 0)
(-0.000671206 0.00256734 0)
(-0.00143413 0.00446093 0)
(-0.00246026 0.0064349 0)
(-0.0037524 0.00844566 0)
(-0.0053049 0.0104542 0)
(-0.00710744 0.0124263 0)
(-0.00914661 0.0143323 0)
(-0.011407 0.0161469 0)
(-0.0138716 0.0178491 0)
(-0.0165223 0.0194214 0)
(-0.0193404 0.02085 0)
(-0.022306 0.0221237 0)
(-0.0253991 0.0232343 0)
(-0.0285991 0.024176 0)
(-0.0318853 0.0249448 0)
(-0.0352368 0.0255388 0)
(-0.0386328 0.0259577 0)
(-0.0420527 0.0262024 0)
(-0.0454759 0.0262753 0)
(-0.0488826 0.0261796 0)
(-0.052253 0.0259195 0)
(-0.0555682 0.0255 0)
(-0.0588097 0.0249267 0)
(-0.0619598 0.0242059 0)
(-0.0650016 0.0233442 0)
(-0.0679188 0.0223488 0)
(-0.0706961 0.0212271 0)
(-0.0733193 0.019987 0)
(-0.0757746 0.0186366 0)
(-0.0780498 0.0171842 0)
(-0.0801332 0.0156383 0)
(-0.0820143 0.0140077 0)
(-0.0836837 0.0123013 0)
(-0.085133 0.0105283 0)
(-0.0863548 0.00869775 0)
(-0.0873431 0.00681921 0)
(-0.0880925 0.00490219 0)
(-0.0885993 0.00295641 0)
(-0.0888606 0.000991682 0)
(-0.0888747 -0.000982009 0)
(-0.0886411 -0.00295458 0)
(-0.0881606 -0.00491582 0)
(-0.087435 -0.00685545 0)
(-0.0864674 -0.00876307 0)
(-0.0852621 -0.0106282 0)
(-0.0838247 -0.0124405 0)