/*--------------------------------*- C++ -*----------------------------------*\
| =========                 |                                                 |
| \\      /  F ield         | OpenFOAM: The Open Source CFD Toolbox           |
|  \\    /   O peration     | Version:  4.1                                   |
|   \\  /    A nd           | Web:      www.OpenFOAM.org                      |
|    \\/     M anipulation  |                                                 |
\*---------------------------------------------------------------------------*/
FoamFile
{
    version     2.0;
    format      ascii;
    class       volVectorField;
    location    "0.198";
    object      U;
}
// * * * * * * * * * * * * * * * * * * * * * * * * * * * * * * * * * * * * * //

dimensions      [0 1 -1 0 0 0 0];

internalField   nonuniform List<vector> 
6400
(
(8.03378e-06 -7.99899e-06 0)
(3.03267e-05 -1.16541e-05 0)
(4.85983e-05 -8.10165e-06 0)
(5.66684e-05 1.19658e-06 0)
(5.03017e-05 1.42261e-05 0)
(2.70059e-05 2.94111e-05 0)
(-1.4448e-05 4.56038e-05 0)
(-7.43697e-05 6.19901e-05 0)
(-0.000152418 7.79984e-05 0)
(-0.000247798 9.32316e-05 0)
(-0.0003594 0.000107418 0)
(-0.000485901 0.000120374 0)
(-0.000625843 0.000131985 0)
(-0.000777683 0.000142179 0)
(-0.00093983 0.000150921 0)
(-0.00111068 0.000158202 0)
(-0.00128863 0.00016403 0)
(-0.0014721 0.000168427 0)
(-0.00165954 0.000171426 0)
(-0.00184944 0.000173068 0)
(-0.00204035 0.000173399 0)
(-0.00223087 0.000172468 0)
(-0.00241964 0.00017033 0)
(-0.00260537 0.000167041 0)
(-0.00278684 0.000162657 0)
(-0.00296289 0.000157237 0)
(-0.00313241 0.000150842 0)
(-0.00329438 0.000143532 0)
(-0.00344783 0.000135367 0)
(-0.00359186 0.000126408 0)
(-0.00372564 0.000116719 0)
(-0.0038484 0.00010636 0)
(-0.00395944 9.53956e-05 0)
(-0.00405815 8.38885e-05 0)
(-0.00414396 7.1903e-05 0)
(-0.00421638 5.9504e-05 0)
(-0.00427501 4.67572e-05 0)
(-0.00431949 3.37295e-05 0)
(-0.00434957 2.04885e-05 0)
(-0.00436503 7.10312e-06 0)
(-0.00436577 -6.35662e-06 0)
(-0.00435175 -1.98195e-05 0)
(-0.00432299 -3.32133e-05 0)
(-0.00427961 -4.64643e-05 0)
(-0.00422181 -5.94978e-05 0)
(-0.00414988 -7.22384e-05 0)
(-0.00406416 -8.46094e-05 0)
(-0.0039651 -9.65335e-05 0)
(-0.00385324 -0.000107933 0)
(-0.00372919 -0.00011873 0)
(-0.00359364 -0.000128846 0)
(-0.00344739 -0.000138204 0)
(-0.00329129 -0.000146727 0)
(-0.0031263 -0.00015434 0)
(-0.00295345 -0.000160967 0)
(-0.00277386 -0.000166537 0)
(-0.00258872 -0.000170981 0)
(-0.00239928 -0.000174232 0)
(-0.00220689 -0.000176229 0)
(-0.00201293 -0.000176914 0)
(-0.00181888 -0.000176236 0)
(-0.00162624 -0.00017415 0)
(-0.00143657 -0.000170618 0)
(-0.00125147 -0.000165612 0)
(-0.00107256 -0.000159117 0)
(-0.000901469 -0.00015113 0)
(-0.000739836 -0.000141665 0)
(-0.000589271 -0.000130759 0)
(-0.000451341 -0.000118476 0)
(-0.000327534 -0.000104915 0)
(-0.000219223 -9.02266e-05 0)
(-0.000127607 -7.46227e-05 0)
(-5.36424e-05 -5.84057e-05 0)
(2.06076e-06 -4.19991e-05 0)
(3.9372e-05 -2.59947e-05 0)
(5.88286e-05 -1.1216e-05 0)
(6.18886e-05 1.19817e-06 0)
(5.12497e-05 9.71279e-06 0)
(3.12829e-05 1.24178e-05 0)
(8.16873e-06 8.10218e-06 0)
(1.18174e-05 -3.0267e-05 0)
(4.56271e-05 -4.51462e-05 0)
(6.53967e-05 -2.70232e-05 0)
(5.6827e-05 1.37705e-05 0)
(9.86175e-06 6.90157e-05 0)
(-8.16346e-05 0.000132584 0)
(-0.000220879 0.000200012 0)
(-0.000408867 0.000268095 0)
(-0.000644949 0.000334557 0)
(-0.00092727 0.000397798 0)
(-0.0012531 0.000456712 0)
(-0.0016191 0.000510545 0)
(-0.00202148 0.000558809 0)
(-0.00245621 0.000601205 0)
(-0.00291904 0.000637576 0)
(-0.00340567 0.000667869 0)
(-0.00391174 0.000692111 0)
(-0.00443294 0.000710386 0)
(-0.00496501 0.000722823 0)
(-0.00550379 0.000729583 0)
(-0.00604521 0.000730854 0)
(-0.00658537 0.00072684 0)
(-0.00712048 0.000717762 0)
(-0.00764692 0.000703849 0)
(-0.00816125 0.00068534 0)
(-0.00866018 0.00066248 0)
(-0.0091406 0.000635517 0)
(-0.00959959 0.000604703 0)
(-0.0100344 0.000570293 0)
(-0.0104425 0.000532547 0)
(-0.0108215 0.000491722 0)
(-0.0111693 0.000448083 0)
(-0.0114839 0.000401893 0)
(-0.0117634 0.00035342 0)
(-0.0120063 0.000302935 0)
(-0.0122113 0.000250711 0)
(-0.0123771 0.000197026 0)
(-0.0125028 0.000142161 0)
(-0.0125876 8.64022e-05 0)
(-0.012631 3.00398e-05 0)
(-0.0126327 -2.66312e-05 0)
(-0.0125925 -8.33108e-05 0)
(-0.0125106 -0.000139694 0)
(-0.0123873 -0.000195472 0)
(-0.0122232 -0.00025033 0)
(-0.012019 -0.000303951 0)
(-0.0117758 -0.000356013 0)
(-0.011495 -0.000406191 0)
(-0.0111779 -0.000454159 0)
(-0.0108264 -0.000499591 0)
(-0.0104424 -0.00054216 0)
(-0.0100281 -0.000581541 0)
(-0.00958614 -0.000617412 0)
(-0.00911904 -0.000649457 0)
(-0.00862977 -0.000677367 0)
(-0.00812145 -0.000700842 0)
(-0.00759743 -0.000719595 0)
(-0.00706126 -0.00073335 0)
(-0.00651667 -0.000741851 0)
(-0.00596756 -0.000744861 0)
(-0.005418 -0.00074217 0)
(-0.00487217 -0.000733592 0)
(-0.0043344 -0.000718978 0)
(-0.00380907 -0.000698219 0)
(-0.00330063 -0.000671252 0)
(-0.00281354 -0.000638074 0)
(-0.00235221 -0.000598755 0)
(-0.00192097 -0.000553452 0)
(-0.00152398 -0.000502439 0)
(-0.00116517 -0.000446138 0)
(-0.000848057 -0.000385167 0)
(-0.000575693 -0.000320403 0)
(-0.000350409 -0.000253074 0)
(-0.000173599 -0.000184884 0)
(-4.53919e-05 -0.000118188 0)
(3.57626e-05 -5.6224e-05 0)
(7.36287e-05 -3.41784e-06 0)
(7.48245e-05 3.4263e-05 0)
(4.97261e-05 4.89737e-05 0)
(1.26787e-05 3.11462e-05 0)
(8.46565e-06 -4.87154e-05 0)
(2.82917e-05 -6.49804e-05 0)
(2.11498e-05 -1.93943e-05 0)
(-3.14081e-05 6.84311e-05 0)
(-0.000142825 0.000183395 0)
(-0.000321555 0.000314162 0)
(-0.000572202 0.000452332 0)
(-0.000896315 0.000591754 0)
(-0.0012931 0.000727965 0)
(-0.00175999 0.000857761 0)
(-0.00229306 0.000978871 0)
(-0.00288744 0.00108972 0)
(-0.00353753 0.00118925 0)
(-0.00423725 0.0012768 0)
(-0.0049802 0.00135198 0)
(-0.0057598 0.00141463 0)
(-0.00656937 0.00146478 0)
(-0.00740225 0.00150254 0)
(-0.00825181 0.00152815 0)
(-0.00911157 0.00154193 0)
(-0.00997517 0.00154423 0)
(-0.0108365 0.00153547 0)
(-0.0116895 0.00151608 0)
(-0.0125286 0.00148654 0)
(-0.0133482 0.00144734 0)
(-0.0141433 0.00139898 0)
(-0.0149087 0.00134197 0)
(-0.01564 0.00127684 0)
(-0.0163327 0.00120412 0)
(-0.0169828 0.00112437 0)
(-0.0175864 0.00103811 0)
(-0.0181403 0.000945919 0)
(-0.0186411 0.000848339 0)
(-0.0190862 0.000745941 0)
(-0.0194728 0.000639298 0)
(-0.019799 0.000528989 0)
(-0.0200627 0.000415602 0)
(-0.0202625 0.000299734 0)
(-0.0203972 0.000181989 0)
(-0.0204658 6.29838e-05 0)
(-0.020468 -5.66581e-05 0)
(-0.0204035 -0.000176302 0)
(-0.0202725 -0.000295303 0)
(-0.0200756 -0.000413008 0)
(-0.0198137 -0.000528754 0)
(-0.0194881 -0.000641871 0)
(-0.0191006 -0.000751681 0)
(-0.018653 -0.000857503 0)
(-0.0181478 -0.000958651 0)
(-0.0175879 -0.00105444 0)
(-0.0169764 -0.00114418 0)
(-0.0163168 -0.00122721 0)
(-0.0156131 -0.00130283 0)
(-0.0148695 -0.00137041 0)
(-0.0140906 -0.00142928 0)
(-0.0132814 -0.00147884 0)
(-0.0124472 -0.00151849 0)
(-0.0115935 -0.00154766 0)
(-0.0107263 -0.00156582 0)
(-0.00985168 -0.00157251 0)
(-0.008976 -0.00156728 0)
(-0.00810584 -0.00154979 0)
(-0.0072479 -0.00151973 0)
(-0.00640902 -0.00147691 0)
(-0.00559609 -0.00142122 0)
(-0.00481597 -0.00135271 0)
(-0.00407544 -0.00127154 0)
(-0.0033811 -0.0011781 0)
(-0.00273925 -0.00107299 0)
(-0.00215576 -0.000957131 0)
(-0.00163588 -0.000831832 0)
(-0.00118404 -0.000698917 0)
(-0.000803581 -0.000560891 0)
(-0.000496419 -0.000421161 0)
(-0.0002626 -0.00028434 0)
(-9.97901e-05 -0.000156645 0)
(-2.6168e-06 -4.64027e-05 0)
(3.80567e-05 3.53269e-05 0)
(3.61476e-05 7.40508e-05 0)
(1.0267e-05 5.12825e-05 0)
(-5.64225e-07 -5.72968e-05 0)
(-1.14361e-05 -5.71265e-05 0)
(-6.48288e-05 3.28891e-05 0)
(-0.000180875 0.000184891 0)
(-0.000374558 0.000377198 0)
(-0.000655417 0.000593227 0)
(-0.00102869 0.000820431 0)
(-0.00149612 0.00104942 0)
(-0.00205668 0.00127322 0)
(-0.00270716 0.00148672 0)
(-0.0034427 0.00168623 0)
(-0.00425717 0.0018691 0)
(-0.0051435 0.00203353 0)
(-0.00609395 0.00217832 0)
(-0.00710031 0.00230277 0)
(-0.00815409 0.00240653 0)
(-0.00924662 0.00248953 0)
(-0.0103692 0.00255195 0)
(-0.0115132 0.00259409 0)
(-0.0126701 0.00261644 0)
(-0.0138316 0.00261956 0)
(-0.0149894 0.0026041 0)
(-0.0161357 0.00257077 0)
(-0.0172629 0.00252034 0)
(-0.0183638 0.0024536 0)
(-0.0194314 0.0023714 0)
(-0.0204591 0.00227458 0)
(-0.0214408 0.00216404 0)
(-0.0223706 0.00204066 0)
(-0.0232431 0.00190536 0)
(-0.0240532 0.00175906 0)
(-0.0247964 0.00160269 0)
(-0.0254683 0.0014372 0)
(-0.0260652 0.00126356 0)
(-0.0265838 0.00108273 0)
(-0.027021 0.000895702 0)
(-0.0273744 0.00070347 0)
(-0.027642 0.000507049 0)
(-0.0278222 0.00030747 0)
(-0.0279138 0.000105776 0)
(-0.0279161 -9.69706e-05 0)
(-0.027829 -0.000299694 0)
(-0.0276527 -0.0005013 0)
(-0.027388 -0.000700682 0)
(-0.0270362 -0.000896717 0)
(-0.0265989 -0.00108827 0)
(-0.0260785 -0.0012742 0)
(-0.0254778 -0.00145336 0)
(-0.0247998 -0.00162458 0)
(-0.0240485 -0.00178672 0)
(-0.023228 -0.00193862 0)
(-0.022343 -0.00207915 0)
(-0.0213989 -0.00220718 0)
(-0.0204013 -0.0023216 0)
(-0.0193563 -0.00242136 0)
(-0.0182706 -0.00250541 0)
(-0.0171511 -0.00257277 0)
(-0.0160054 -0.00262251 0)
(-0.0148411 -0.00265377 0)
(-0.0136665 -0.00266576 0)
(-0.0124899 -0.00265781 0)
(-0.0113199 -0.00262934 0)
(-0.0101654 -0.0025799 0)
(-0.00903532 -0.0025092 0)
(-0.00793868 -0.00241713 0)
(-0.0068844 -0.0023038 0)
(-0.00588128 -0.00216958 0)
(-0.00493782 -0.00201515 0)
(-0.0040621 -0.00184162 0)
(-0.0032616 -0.00165055 0)
(-0.00254297 -0.00144417 0)
(-0.00191179 -0.0012255 0)
(-0.00137223 -0.000998616 0)
(-0.000926671 -0.000768951 0)
(-0.000575235 -0.000543705 0)
(-0.000315224 -0.000332378 0)
(-0.000140449 -0.00014743 0)
(-4.0515e-05 -5.0806e-06 0)
(2.0866e-07 7.375e-05 0)
(2.19214e-06 6.25255e-05 0)
(-1.33282e-05 -5.18488e-05 0)
(-6.56495e-05 -1.16104e-05 0)
(-0.000178141 0.000143261 0)
(-0.000371166 0.000378224 0)
(-0.000659948 0.000665825 0)
(-0.00105409 0.000984603 0)
(-0.00155877 0.00131797 0)
(-0.00217546 0.00165325 0)
(-0.00290266 0.00198082 0)
(-0.00373649 0.00229348 0)
(-0.00467121 0.00258591 0)
(-0.00569958 0.00285425 0)
(-0.00681328 0.00309577 0)
(-0.00800314 0.00330862 0)
(-0.00925942 0.00349164 0)
(-0.010572 0.00364424 0)
(-0.0119305 0.00376621 0)
(-0.0133246 0.0038577 0)
(-0.0147437 0.00391913 0)
(-0.0161775 0.0039511 0)
(-0.017616 0.00395442 0)
(-0.0190492 0.00393 0)
(-0.0204675 0.00387885 0)
(-0.0218618 0.00380208 0)
(-0.023223 0.00370088 0)
(-0.0245427 0.00357646 0)
(-0.0258129 0.00343009 0)
(-0.0270259 0.00326308 0)
(-0.0281747 0.00307677 0)
(-0.0292524 0.00287252 0)
(-0.0302529 0.0026517 0)
(-0.0311706 0.00241574 0)
(-0.0320002 0.00216605 0)
(-0.0327371 0.00190407 0)
(-0.0333771 0.00163129 0)
(-0.0339166 0.00134918 0)
(-0.0343526 0.00105925 0)
(-0.0346825 0.000763034 0)
(-0.0349044 0.000462088 0)
(-0.0350169 0.000157987 0)
(-0.0350192 -0.000147666 0)
(-0.0349111 -0.000453247 0)
(-0.034693 -0.000757107 0)
(-0.0343657 -0.00105758 0)
(-0.0339308 -0.00135297 0)
(-0.0333906 -0.00164158 0)
(-0.0327478 -0.00192169 0)
(-0.0320058 -0.00219157 0)
(-0.0311686 -0.00244949 0)
(-0.0302408 -0.00269372 0)
(-0.0292276 -0.00292254 0)
(-0.0281349 -0.00313426 0)
(-0.026969 -0.00332719 0)
(-0.025737 -0.0034997 0)
(-0.0244464 -0.00365021 0)
(-0.0231053 -0.00377717 0)
(-0.0217222 -0.00387915 0)
(-0.0203062 -0.00395478 0)
(-0.0188668 -0.0040028 0)
(-0.0174138 -0.00402208 0)
(-0.0159575 -0.00401164 0)
(-0.0145084 -0.00397068 0)
(-0.013077 -0.00389858 0)
(-0.0116743 -0.00379498 0)
(-0.0103111 -0.00365978 0)
(-0.00899797 -0.00349323 0)
(-0.00774557 -0.00329595 0)
(-0.006564 -0.00306906 0)
(-0.00546287 -0.00281424 0)
(-0.00445103 -0.00253391 0)
(-0.00353636 -0.00223136 0)
(-0.00272543 -0.00191104 0)
(-0.00202323 -0.00157877 0)
(-0.00143269 -0.00124223 0)
(-0.000954283 -0.000911346 0)
(-0.000585413 -0.000598985 0)
(-0.000319808 -0.000321663 0)
(-0.00014683 -0.00010044 0)
(-5.04173e-05 3.80595e-05 0)
(-9.66967e-06 6.06853e-05 0)
(-2.8356e-05 -2.98414e-05 0)
(-0.000128668 7.79269e-05 0)
(-0.000308397 0.000320659 0)
(-0.000587324 0.000658742 0)
(-0.000980033 0.00105995 0)
(-0.00149543 0.00149855 0)
(-0.00213798 0.00195423 0)
(-0.00290849 0.00241114 0)
(-0.00380469 0.00285704 0)
(-0.00482191 0.00328259 0)
(-0.00595343 0.00368075 0)
(-0.00719101 0.0040463 0)
(-0.00852516 0.0043755 0)
(-0.00994547 0.00466572 0)
(-0.0114408 0.0049153 0)
(-0.0129997 0.00512328 0)
(-0.0146103 0.00528928 0)
(-0.0162606 0.0054134 0)
(-0.0179386 0.00549611 0)
(-0.0196324 0.00553819 0)
(-0.0213304 0.00554063 0)
(-0.0230211 0.00550465 0)
(-0.0246933 0.0054316 0)
(-0.0263364 0.00532299 0)
(-0.02794 0.00518039 0)
(-0.0294942 0.00500548 0)
(-0.0309897 0.00480001 0)
(-0.0324175 0.00456577 0)
(-0.0337693 0.00430461 0)
(-0.0350374 0.00401843 0)
(-0.0362144 0.00370913 0)
(-0.0372937 0.0033787 0)
(-0.0382693 0.0030291 0)
(-0.0391357 0.00266236 0)
(-0.0398881 0.00228054 0)
(-0.0405222 0.00188572 0)
(-0.0410344 0.00147999 0)
(-0.041422 0.00106552 0)
(-0.0416824 0.000644473 0)
(-0.0418143 0.000219058 0)
(-0.0418166 -0.000208483 0)
(-0.041689 -0.00063588 0)
(-0.0414321 -0.00106083 0)
(-0.0410469 -0.001481 0)
(-0.0405353 -0.00189403 0)
(-0.0398998 -0.00229755 0)
(-0.0391437 -0.00268916 0)
(-0.0382711 -0.00306647 0)
(-0.0372865 -0.00342705 0)
(-0.0361953 -0.00376852 0)
(-0.0350038 -0.0040885 0)
(-0.0337186 -0.00438461 0)
(-0.0323472 -0.00465456 0)
(-0.0308979 -0.00489607 0)
(-0.0293793 -0.00510698 0)
(-0.0278009 -0.00528517 0)
(-0.0261726 -0.00542866 0)
(-0.024505 -0.0055356 0)
(-0.022809 -0.00560428 0)
(-0.021096 -0.00563318 0)
(-0.019378 -0.00562101 0)
(-0.0176669 -0.00556668 0)
(-0.0159751 -0.00546945 0)
(-0.014315 -0.00532887 0)
(-0.012699 -0.00514491 0)
(-0.0111395 -0.00491797 0)
(-0.0096484 -0.00464904 0)
(-0.00823736 -0.00433972 0)
(-0.00691731 -0.00399241 0)
(-0.00569836 -0.00361048 0)
(-0.00458949 -0.00319844 0)
(-0.00359826 -0.00276226 0)
(-0.00273051 -0.00230966 0)
(-0.00198991 -0.00185062 0)
(-0.00137757 -0.00139782 0)
(-0.000891466 -0.000967388 0)
(-0.000525849 -0.00057961 0)
(-0.000270608 -0.000259851 0)
(-0.00011012 -3.95095e-05 0)
(-2.38658e-05 4.31652e-05 0)
(-4.46236e-05 1.01274e-05 0)
(-0.000196545 0.000215289 0)
(-0.000448276 0.000570733 0)
(-0.000818606 0.00103321 0)
(-0.00132093 0.00156676 0)
(-0.0019629 0.00214204 0)
(-0.00274781 0.00273546 0)
(-0.00367535 0.00332829 0)
(-0.00474226 0.00390577 0)
(-0.00594283 0.00445646 0)
(-0.00726934 0.00497159 0)
(-0.00871248 0.00544455 0)
(-0.0102617 0.0058705 0)
(-0.0119053 0.00624601 0)
(-0.013631 0.00656879 0)
(-0.0154261 0.00683751 0)
(-0.0172773 0.00705156 0)
(-0.0191713 0.00721095 0)
(-0.0210948 0.00731619 0)
(-0.0230344 0.00736821 0)
(-0.0249771 0.00736822 0)
(-0.0269101 0.00731776 0)
(-0.0288209 0.00721853 0)
(-0.0306974 0.00707246 0)
(-0.032528 0.00688158 0)
(-0.0343016 0.00664807 0)
(-0.0360075 0.00637419 0)
(-0.0376359 0.00606231 0)
(-0.0391772 0.00571484 0)
(-0.0406227 0.00533426 0)
(-0.0419641 0.00492312 0)
(-0.043194 0.004484 0)
(-0.0443054 0.00401953 0)
(-0.0452923 0.00353239 0)
(-0.0461492 0.00302529 0)
(-0.0468713 0.00250099 0)
(-0.0474545 0.0019623 0)
(-0.0478956 0.00141205 0)
(-0.048192 0.000853128 0)
(-0.0483418 0.000288469 0)
(-0.0483441 -0.000278959 0)
(-0.0481986 -0.000846146 0)
(-0.0479057 -0.00141004 0)
(-0.0474668 -0.00196756 0)
(-0.046884 -0.00251558 0)
(-0.0461601 -0.00305096 0)
(-0.0452989 -0.00357055 0)
(-0.0443049 -0.00407116 0)
(-0.0431833 -0.00454962 0)
(-0.0419403 -0.00500279 0)
(-0.0405828 -0.00542751 0)
(-0.0391184 -0.0058207 0)
(-0.0375557 -0.00617932 0)
(-0.0359036 -0.00650041 0)
(-0.0341722 -0.00678112 0)
(-0.032372 -0.00701871 0)
(-0.0305143 -0.0072106 0)
(-0.0286108 -0.00735439 0)
(-0.0266739 -0.00744788 0)
(-0.0247163 -0.00748912 0)
(-0.0227514 -0.00747647 0)
(-0.0207926 -0.0074086 0)
(-0.0188538 -0.00728458 0)
(-0.0169487 -0.00710392 0)
(-0.0150913 -0.00686666 0)
(-0.0132952 -0.00657343 0)
(-0.0115739 -0.0062256 0)
(-0.00994011 -0.00582536 0)
(-0.00840615 -0.00537589 0)
(-0.00698326 -0.00488159 0)
(-0.00568152 -0.00434827 0)
(-0.0045095 -0.00378349 0)
(-0.00347402 -0.00319691 0)
(-0.00257969 -0.00260078 0)
(-0.00182853 -0.00201045 0)
(-0.00121948 -0.00144506 0)
(-0.000747827 -0.000928287 0)
(-0.000404529 -0.000489168 0)
(-0.000174953 -0.00016292 0)
(-3.93708e-05 8.4893e-06 0)
(-6.14465e-05 6.86869e-05 0)
(-0.000266617 0.000402445 0)
(-0.000592742 0.000896674 0)
(-0.00105747 0.00150569 0)
(-0.00167272 0.0021907 0)
(-0.00244448 0.00291948 0)
(-0.00337452 0.00366566 0)
(-0.00446113 0.00440791 0)
(-0.00569974 0.0051292 0)
(-0.00708345 0.00581611 0)
(-0.00860341 0.00645817 0)
(-0.0102492 0.00704741 0)
(-0.012009 0.00757788 0)
(-0.0138703 0.00804529 0)
(-0.0158194 0.00844675 0)
(-0.0178424 0.00878046 0)
(-0.0199249 0.00904559 0)
(-0.0220524 0.00924203 0)
(-0.0242102 0.00937032 0)
(-0.0263839 0.00943152 0)
(-0.028559 0.0094271 0)
(-0.0307216 0.00935888 0)
(-0.0328579 0.00922898 0)
(-0.0349548 0.00903975 0)
(-0.0369993 0.00879373 0)
(-0.0389794 0.00849364 0)
(-0.0408833 0.00814232 0)
(-0.0426999 0.00774273 0)
(-0.044419 0.00729792 0)
(-0.0460308 0.00681104 0)
(-0.0475263 0.0062853 0)
(-0.0488971 0.00572398 0)
(-0.0501358 0.00513043 0)
(-0.0512355 0.00450805 0)
(-0.0521901 0.00386029 0)
(-0.0529945 0.00319067 0)
(-0.0536441 0.00250277 0)
(-0.0541354 0.00180019 0)
(-0.0544654 0.00108663 0)
(-0.0546323 0.000365803 0)
(-0.0546348 -0.000358497 0)
(-0.0544727 -0.00108244 0)
(-0.0541465 -0.00180214 0)
(-0.0536577 -0.00251367 0)
(-0.0530086 -0.00321308 0)
(-0.0522024 -0.00389636 0)
(-0.0512432 -0.0045595 0)
(-0.050136 -0.00519849 0)
(-0.0488866 -0.00580929 0)
(-0.0475017 -0.00638791 0)
(-0.045989 -0.00693038 0)
(-0.044357 -0.00743279 0)
(-0.0426148 -0.00789131 0)
(-0.0407726 -0.00830221 0)
(-0.0388414 -0.00866191 0)
(-0.0368326 -0.00896696 0)
(-0.0347587 -0.00921414 0)
(-0.0326326 -0.00940045 0)
(-0.0304678 -0.00952316 0)
(-0.0282785 -0.00957987 0)
(-0.026079 -0.00956855 0)
(-0.0238843 -0.0094876 0)
(-0.0217094 -0.00933593 0)
(-0.0195694 -0.00911301 0)
(-0.0174795 -0.00881896 0)
(-0.0154548 -0.00845468 0)
(-0.0135097 -0.00802196 0)
(-0.0116585 -0.0075236 0)
(-0.00991452 -0.00696363 0)
(-0.00829013 -0.00634751 0)
(-0.00679654 -0.00568239 0)
(-0.00544346 -0.00497743 0)
(-0.00423878 -0.00424419 0)
(-0.00318824 -0.0034971 0)
(-0.00229506 -0.002754 0)
(-0.00155948 -0.00203677 0)
(-0.000978163 -0.00137202 0)
(-0.000543526 -0.000791812 0)
(-0.00024223 -0.000334305 0)
(-5.54928e-05 -4.4041e-05 0)
(-7.83813e-05 0.000145962 0)
(-0.000337143 0.000640111 0)
(-0.000738431 0.00129993 0)
(-0.00129878 0.00207823 0)
(-0.00202846 0.0029342 0)
(-0.00293162 0.00383338 0)
(-0.00400822 0.00474707 0)
(-0.00525489 0.00565176 0)
(-0.00666555 0.00652838 0)
(-0.00823194 0.00736168 0)
(-0.00994393 0.00813965 0)
(-0.0117899 0.00885297 0)
(-0.0137569 0.00949463 0)
(-0.0158311 0.0100595 0)
(-0.0179979 0.0105441 0)
(-0.0202422 0.0109461 0)
(-0.0225485 0.0112644 0)
(-0.024901 0.0114989 0)
(-0.027284 0.0116501 0)
(-0.0296819 0.0117191 0)
(-0.0320792 0.0117078 0)
(-0.0344608 0.0116183 0)
(-0.0368118 0.011453 0)
(-0.039118 0.0112148 0)
(-0.0413655 0.0109068 0)
(-0.0435411 0.0105323 0)
(-0.0456322 0.0100947 0)
(-0.0476269 0.00959766 0)
(-0.0495138 0.00904491 0)
(-0.0512825 0.0084403 0)
(-0.0529231 0.00778779 0)
(-0.0544268 0.00709141 0)
(-0.0557852 0.00635528 0)
(-0.0569911 0.0055836 0)
(-0.0580378 0.00478064 0)
(-0.0589197 0.00395073 0)
(-0.0596319 0.00309828 0)
(-0.0601705 0.00222777 0)
(-0.0605324 0.00134373 0)
(-0.0607156 0.000450786 0)
(-0.0607186 -0.000446404 0)
(-0.0605413 -0.0013431 0)
(-0.0601842 -0.00223452 0)
(-0.0596489 -0.00311581 0)
(-0.058938 -0.0039821 0)
(-0.0580548 -0.00482845 0)
(-0.0570039 -0.00564994 0)
(-0.0557906 -0.0064416 0)
(-0.0544213 -0.0071985 0)
(-0.0529032 -0.00791571 0)
(-0.0512447 -0.00858837 0)
(-0.0494548 -0.00921168 0)
(-0.0475436 -0.00978095 0)
(-0.045522 -0.0102916 0)
(-0.0434019 -0.0107393 0)
(-0.0411957 -0.0111198 0)
(-0.0389168 -0.0114292 0)
(-0.0365792 -0.0116639 0)
(-0.0341974 -0.0118205 0)
(-0.0317868 -0.0118962 0)
(-0.029363 -0.0118885 0)
(-0.0269418 -0.0117956 0)
(-0.0245397 -0.0116162 0)
(-0.0221729 -0.0113496 0)
(-0.0198578 -0.0109962 0)
(-0.0176106 -0.0105572 0)
(-0.015447 -0.0100346 0)
(-0.0133824 -0.00943203 0)
(-0.0114314 -0.00875431 0)
(-0.00960736 -0.00800799 0)
(-0.00792281 -0.00720153 0)
(-0.00638859 -0.00634566 0)
(-0.00501385 -0.00545376 0)
(-0.00380563 -0.0045423 0)
(-0.0027686 -0.00363138 0)
(-0.0019045 -0.0027453 0)
(-0.00121167 -0.00191316 0)
(-0.000684195 -0.00116945 0)
(-0.000310182 -0.000554537 0)
(-7.17807e-05 -0.000114613 0)
(-9.51522e-05 0.000241761 0)
(-0.000407027 0.000928169 0)
(-0.000883178 0.00178072 0)
(-0.00153913 0.00275145 0)
(-0.0023835 0.00379819 0)
(-0.00341845 0.00488476 0)
(-0.00464198 0.00598067 0)
(-0.00604888 0.00706052 0)
(-0.00763141 0.00810351 0)
(-0.00937974 0.00909277 0)
(-0.0112824 0.0100149 0)
(-0.0133263 0.0108593 0)
(-0.0154976 0.0116179 0)
(-0.017781 0.0122849 0)
(-0.0201609 0.0128562 0)
(-0.0226211 0.0133289 0)
(-0.0251449 0.0137019 0)
(-0.0277156 0.0139747 0)
(-0.0303163 0.014148 0)
(-0.0329304 0.0142231 0)
(-0.0355415 0.014202 0)
(-0.0381332 0.0140872 0)
(-0.0406898 0.0138816 0)
(-0.0431961 0.0135886 0)
(-0.0456373 0.0132118 0)
(-0.0479993 0.0127551 0)
(-0.0502686 0.0122226 0)
(-0.0524324 0.0116187 0)
(-0.0544787 0.0109477 0)
(-0.0563963 0.0102144 0)
(-0.0581746 0.00942351 0)
(-0.0598042 0.0085798 0)
(-0.0612761 0.00768825 0)
(-0.0625826 0.00675393 0)
(-0.0637166 0.00578197 0)
(-0.064672 0.00477758 0)
(-0.0654436 0.0037461 0)
(-0.0660273 0.00269289 0)
(-0.0664197 0.00162344 0)
(-0.0666186 0.000543294 0)
(-0.0666226 -0.000541916 0)
(-0.0664313 -0.00162649 0)
(-0.0660456 -0.00270467 0)
(-0.0654669 -0.00377062 0)
(-0.0646981 -0.00481847 0)
(-0.0637427 -0.0058423 0)
(-0.0626056 -0.00683618 0)
(-0.0612926 -0.00779415 0)
(-0.0598103 -0.00871028 0)
(-0.0581666 -0.00957868 0)
(-0.0563702 -0.0103935 0)
(-0.054431 -0.011149 0)
(-0.0523596 -0.0118396 0)
(-0.0501678 -0.0124598 0)
(-0.047868 -0.0130043 0)
(-0.0454738 -0.0134683 0)
(-0.0429992 -0.0138469 0)
(-0.0404593 -0.014136 0)
(-0.0378696 -0.0143315 0)
(-0.0352464 -0.01443 0)
(-0.0326064 -0.0144288 0)
(-0.0299666 -0.0143256 0)
(-0.0273443 -0.0141189 0)
(-0.0247571 -0.0138082 0)
(-0.0222224 -0.0133937 0)
(-0.0197575 -0.0128769 0)
(-0.0173795 -0.0122605 0)
(-0.0151047 -0.0115485 0)
(-0.0129488 -0.0107466 0)
(-0.0109267 -0.00986253 0)
(-0.00905198 -0.00890591 0)
(-0.00733676 -0.007889 0)
(-0.0057916 -0.00682685 0)
(-0.00442503 -0.00573784 0)
(-0.00324329 -0.00464407 0)
(-0.00224988 -0.00357195 0)
(-0.00144493 -0.00255264 0)
(-0.000824352 -0.00162257 0)
(-0.000377698 -0.000823653 0)
(-8.79531e-05 -0.000203091 0)
(-0.000111598 0.000355711 0)
(-0.000475626 0.00126598 0)
(-0.00102567 0.00233849 0)
(-0.00177641 0.00352501 0)
(-0.00273483 0.00478253 0)
(-0.00390111 0.00607366 0)
(-0.00527118 0.00736647 0)
(-0.00683786 0.00863408 0)
(-0.0085916 0.00985419 0)
(-0.0105209 0.0110085 0)
(-0.0126128 0.0120825 0)
(-0.0148529 0.0130643 0)
(-0.0172258 0.0139451 0)
(-0.0197153 0.0147183 0)
(-0.0223046 0.015379 0)
(-0.0249762 0.0159244 0)
(-0.0277125 0.0163527 0)
(-0.0304958 0.0166636 0)
(-0.0333081 0.0168577 0)
(-0.0361319 0.0169366 0)
(-0.0389496 0.0169025 0)
(-0.0417441 0.0167582 0)
(-0.0444989 0.0165072 0)
(-0.0471976 0.0161534 0)
(-0.0498248 0.0157009 0)
(-0.0523655 0.0151543 0)
(-0.0548053 0.0145185 0)
(-0.057131 0.0137984 0)
(-0.0593296 0.0129994 0)
(-0.0613893 0.0121268 0)
(-0.063299 0.0111863 0)
(-0.0650486 0.0101835 0)
(-0.0666288 0.00912425 0)
(-0.0680312 0.00801458 0)
(-0.0692484 0.0068605 0)
(-0.070274 0.00566818 0)
(-0.0711025 0.0044439 0)
(-0.0717294 0.00319401 0)
(-0.0721513 0.00192498 0)
(-0.0723656 0.000643361 0)
(-0.0723711 -0.000644208 0)
(-0.0721673 -0.001931 0)
(-0.0717549 -0.00321021 0)
(-0.0711357 -0.00447497 0)
(-0.0703125 -0.00571836 0)
(-0.0692893 -0.00693339 0)
(-0.0680709 -0.00811307 0)
(-0.0666636 -0.00925039 0)
(-0.0650743 -0.0103384 0)
(-0.0633115 -0.0113701 0)
(-0.0613843 -0.0123387 0)
(-0.059303 -0.0132373 0)
(-0.057079 -0.0140595 0)
(-0.0547247 -0.0147988 0)
(-0.0522531 -0.0154491 0)
(-0.0496787 -0.0160044 0)
(-0.0470163 -0.0164595 0)
(-0.0442817 -0.0168091 0)
(-0.0414915 -0.0170488 0)
(-0.0386627 -0.0171745 0)
(-0.0358132 -0.017183 0)
(-0.0329608 -0.0170717 0)
(-0.030124 -0.016839 0)
(-0.0273214 -0.0164841 0)
(-0.0245715 -0.0160075 0)
(-0.0218928 -0.0154108 0)
(-0.0193033 -0.0146971 0)
(-0.0168206 -0.0138712 0)
(-0.0144618 -0.0129394 0)
(-0.0122428 -0.0119106 0)
(-0.0101785 -0.0107954 0)
(-0.00828257 -0.00960771 0)
(-0.006567 -0.00836398 0)
(-0.00504195 -0.00708431 0)
(-0.00371539 -0.00579259 0)
(-0.00259267 -0.00451701 0)
(-0.00167586 -0.00329046 0)
(-0.000962683 -0.00215083 0)
(-0.000444128 -0.00114117 0)
(-0.000103847 -0.000309156 0)
(-0.000127638 0.000487342 0)
(-0.000542604 0.00165259 0)
(-0.00116519 0.00297217 0)
(-0.0020094 0.00439793 0)
(-0.0030807 0.0058864 0)
(-0.00437727 0.00739937 0)
(-0.00589294 0.00890385 0)
(-0.00761849 0.0103718 0)
(-0.00954247 0.0117796 0)
(-0.0116516 0.013108 0)
(-0.0139313 0.014341 0)
(-0.0163658 0.0154663 0)
(-0.0189383 0.0164739 0)
(-0.0216313 0.0173566 0)
(-0.0244268 0.0181093 0)
(-0.0273063 0.0187284 0)
(-0.030251 0.0192124 0)
(-0.0332422 0.0195606 0)
(-0.0362611 0.0197738 0)
(-0.0392891 0.0198538 0)
(-0.0423077 0.0198031 0)
(-0.0452991 0.0196249 0)
(-0.0482457 0.0193232 0)
(-0.0511306 0.0189024 0)
(-0.0539373 0.0183674 0)
(-0.0566502 0.0177233 0)
(-0.0592544 0.0169757 0)
(-0.0617356 0.0161305 0)
(-0.0640805 0.0151937 0)
(-0.0662767 0.0141717 0)
(-0.0683126 0.0130707 0)
(-0.0701773 0.0118976 0)
(-0.0718614 0.0106589 0)
(-0.0733558 0.00936174 0)
(-0.074653 0.00801304 0)
(-0.0757461 0.00661996 0)
(-0.0766294 0.00518979 0)
(-0.0772981 0.00372992 0)
(-0.0777487 0.00224785 0)
(-0.0779785 0.000751171 0)
(-0.0779861 -0.000752395 0)
(-0.077771 -0.00225505 0)
(-0.077334 -0.00374889 0)
(-0.0766768 -0.00522596 0)
(-0.0758025 -0.00667822 0)
(-0.0747152 -0.00809759 0)
(-0.0734199 -0.00947595 0)
(-0.0719231 -0.0108052 0)
(-0.0702323 -0.0120772 0)
(-0.068356 -0.013284 0)
(-0.0663039 -0.0144176 0)
(-0.0640869 -0.0154701 0)
(-0.0617167 -0.0164341 0)
(-0.0592064 -0.017302 0)
(-0.0565697 -0.0180668 0)
(-0.0538216 -0.0187216 0)
(-0.0509778 -0.0192603 0)
(-0.0480549 -0.019677 0)
(-0.0450701 -0.0199664 0)
(-0.0420416 -0.0201239 0)
(-0.0389878 -0.0201458 0)
(-0.0359278 -0.0200291 0)
(-0.0328809 -0.019772 0)
(-0.0298668 -0.0193736 0)
(-0.0269051 -0.0188343 0)
(-0.0240152 -0.0181561 0)
(-0.0212165 -0.0173425 0)
(-0.0185278 -0.0163986 0)
(-0.0159673 -0.0153318 0)
(-0.0135522 -0.0141515 0)
(-0.011299 -0.0128699 0)
(-0.00922277 -0.0115018 0)
(-0.00733704 -0.0100652 0)
(-0.00565375 -0.00858171 0)
(-0.0041827 -0.00707678 0)
(-0.00293122 -0.00558012 0)
(-0.00190329 -0.00412599 0)
(-0.0010985 -0.00275346 0)
(-0.000509146 -0.0015063 0)
(-0.000119383 -0.000432389 0)
(-0.00014324 0.000636147 0)
(-0.000607835 0.00208693 0)
(-0.00130144 0.00368043 0)
(-0.00223754 0.00536883 0)
(-0.00342021 0.00710851 0)
(-0.00484567 0.00886072 0)
(-0.00650567 0.0105917 0)
(-0.00838891 0.0122725 0)
(-0.0104819 0.0138787 0)
(-0.0127697 0.0153897 0)
(-0.0152359 0.0167891 0)
(-0.0178631 0.0180634 0)
(-0.0206333 0.0192022 0)
(-0.0235276 0.0201976 0)
(-0.0265267 0.021044 0)
(-0.029611 0.0217378 0)
(-0.0327609 0.0222771 0)
(-0.0359563 0.0226615 0)
(-0.0391777 0.0228917 0)
(-0.0424054 0.0229698 0)
(-0.0456203 0.0228986 0)
(-0.0488036 0.0226819 0)
(-0.0519369 0.022324 0)
(-0.0550026 0.0218301 0)
(-0.0579835 0.0212055 0)
(-0.0608633 0.0204563 0)
(-0.0636265 0.0195888 0)
(-0.0662582 0.0186096 0)
(-0.0687445 0.0175257 0)
(-0.0710725 0.0163441 0)
(-0.07323 0.0150724 0)
(-0.0752059 0.0137179 0)
(-0.0769901 0.0122886 0)
(-0.0785735 0.0107923 0)
(-0.0799479 0.00923694 0)
(-0.0811064 0.00763084 0)
(-0.0820428 0.00598228 0)
(-0.0827523 0.00429972 0)
(-0.0832311 0.00259174 0)
(-0.0834765 0.000867053 0)
(-0.0834869 -0.000865533 0)
(-0.0832619 -0.00259709 0)
(-0.0828021 -0.00431858 0)
(-0.0821095 -0.00602089 0)
(-0.081187 -0.00769484 0)
(-0.080039 -0.00933118 0)
(-0.0786707 -0.0109206 0)
(-0.0770888 -0.0124539 0)
(-0.075301 -0.0139218 0)
(-0.0733162 -0.0153151 0)
(-0.0711445 -0.0166248 0)
(-0.0687971 -0.0178418 0)
(-0.0662864 -0.0189575 0)
(-0.0636257 -0.0199635 0)
(-0.0608294 -0.0208516 0)
(-0.0579132 -0.0216142 0)
(-0.0548934 -0.022244 0)
(-0.0517872 -0.0227343 0)
(-0.0486128 -0.0230793 0)
(-0.045389 -0.0232736 0)
(-0.0421352 -0.023313 0)
(-0.0388714 -0.0231941 0)
(-0.0356179 -0.0229147 0)
(-0.0323952 -0.0224738 0)
(-0.0292241 -0.0218719 0)
(-0.0261252 -0.0211111 0)
(-0.023119 -0.0201951 0)
(-0.0202255 -0.0191297 0)
(-0.0174641 -0.0179228 0)
(-0.0148537 -0.0165849 0)
(-0.012412 -0.0151289 0)
(-0.0101558 -0.013571 0)
(-0.00810026 -0.0119302 0)
(-0.00625916 -0.0102297 0)
(-0.00464424 -0.00849612 0)
(-0.00326478 -0.00676051 0)
(-0.00212677 -0.0050583 0)
(-0.00123155 -0.00342941 0)
(-0.000572649 -0.00191813 0)
(-0.000134534 -0.000572343 0)
(-0.000158411 0.000801627 0)
(-0.000671332 0.00256786 0)
(-0.0014344 0.00446183 0)
(-0.00246073 0.00643618 0)
(-0.00375312 0.00844734 0)
(-0.00530591 0.0104563 0)
(-0.00710879 0.0124288 0)
(-0.00914834 0.0143351 0)
(-0.0114091 0.0161501 0)
(-0.0138742 0.0178526 0)
(-0.0165255 0.0194253 0)
(-0.019344 0.0208541 0)
(-0.0223102 0.0221281 0)
(-0.0254038 0.0232389 0)
(-0.0286045 0.0241807 0)
(-0.0318913 0.0249497 0)
(-0.0352434 0.0255438 0)
(-0.0386401 0.0259628 0)
(-0.0420606 0.0262076 0)
(-0.0454845 0.0262805 0)
(-0.0488918 0.0261848 0)
(-0.0522628 0.0259246 0)
(-0.0555786 0.025505 0)
(-0.0588207 0.0249316 0)
(-0.0619714 0.0242106 0)
(-0.0650137 0.0233487 0)
(-0.0679315 0.0223531 0)
(-0.0707093 0.0212312 0)
(-0.0733329 0.0199908 0)
(-0.0757888 0.0186401 0)
(-0.0780643 0.0171874 0)
(-0.080148 0.0156412 0)
(-0.0820295 0.0140102 0)
(-0.0836992 0.0123035 0)
(-0.0851487 0.01053 0)
(-0.0863707 0.00869915 0)
(-0.0873591 0.00682021 0)
(-0.0881087 0.00490279 0)
(-0.0886155 0.0029566 0)
(-0.0888768 0.000991473 0)
(-0.0888908 -0.000982619 0)
(-0.0886572 -0.00295559 0)
(-0.0881765 -0.00491722 0)
(-0.0874507 -0.00685723 0)
(-0.0864828 -0.00876522 0)
(-0.0852773 -0.0106308 0)
(-0.0838396 -0.0124433 0)
(-0.0821764 -0.0141925 0)