/*--------------------------------*- C++ -*----------------------------------*\
| =========                 |                                                 |
| \\      /  F ield         | OpenFOAM: The Open Source CFD Toolbox           |
|  \\    /   O peration     | Version:  4.1                                   |
|   \\  /    A nd           | Web:      www.OpenFOAM.org                      |
|    \\/     M anipulation  |                                                 |
\*---------------------------------------------------------------------------*/
FoamFile
{
    version     2.0;
    format      ascii;
    class       volVectorField;
    location    "0.03";
    object      U;
}
// * * * * * * * * * * * * * * * * * * * * * * * * * * * * * * * * * * * * * //

dimensions      [0 1 -1 0 0 0 0];

internalField   nonuniform List<vector> 
100
(
(-0.00179474 0.0019104 0)
(-0.00462825 0.00177926 0)
(-0.00844554 0.00161795 0)
(-0.01038 0.000818269 0)
(-0.0118502 0.000436406 0)
(-0.0118937 -0.000502962 0)
(-0.0106049 -0.000899378 0)
(-0.00869251 -0.00174484 0)
(-0.00482212 -0.00192757 0)
(-0.00191268 -0.0020823 0)
(-0.00238074 0.00450375 0)
(-0.0065693 0.00474081 0)
(-0.0118027 0.00432426 0)
(-0.0145198 0.00234037 0)
(-0.0164695 0.00136518 0)
(-0.01653 -0.00100432 0)
(-0.0148235 -0.00201546 0)
(-0.012138 -0.00422095 0)
(-0.00683886 -0.00468808 0)
(-0.00253169 -0.00463155 0)
(-0.00282931 0.0110475 0)
(-0.00745966 0.0111767 0)
(-0.0133205 0.00993875 0)
(-0.0162961 0.00522809 0)
(-0.0184884 0.00278446 0)
(-0.0185724 -0.0025682 0)
(-0.0167857 -0.00510655 0)
(-0.013864 -0.0102006 0)
(-0.00794059 -0.0115934 0)
(-0.00314097 -0.0117347 0)
(-0.0044086 0.014471 0)
(-0.0105689 0.0147851 0)
(-0.0181773 0.0132106 0)
(-0.0219446 0.00709135 0)
(-0.0245385 0.00401261 0)
(-0.0246971 -0.002943 0)
(-0.0227068 -0.00613155 0)
(-0.0190625 -0.0130171 0)
(-0.0113798 -0.0147855 0)
(-0.00487874 -0.0152836 0)
(-0.00549202 0.0266415 0)
(-0.0125685 0.0250132 0)
(-0.0213276 0.0221194 0)
(-0.025541 0.0111749 0)
(-0.0285292 0.0061148 0)
(-0.0287448 -0.00520853 0)
(-0.0268824 -0.0105449 0)
(-0.0229065 -0.0226091 0)
(-0.0142766 -0.0261012 0)
(-0.006674 -0.0288863 0)
(-0.0106973 0.0316646 0)
(-0.0215912 0.0296518 0)
(-0.032528 0.026133 0)
(-0.0380004 0.0135369 0)
(-0.0409064 0.00785065 0)
(-0.0413577 -0.00492093 0)
(-0.0401016 -0.0107832 0)
(-0.035197 -0.0253508 0)
(-0.0245232 -0.0295474 0)
(-0.0124405 -0.0351407 0)
(-0.0131361 0.0605453 0)
(-0.0260906 0.0468571 0)
(-0.0378602 0.0402389 0)
(-0.0437048 0.0187019 0)
(-0.0467437 0.0105423 0)
(-0.0471299 -0.00759375 0)
(-0.0470064 -0.0163474 0)
(-0.0421757 -0.0405314 0)
(-0.0324676 -0.0495222 0)
(-0.0178609 -0.0682206 0)
(-0.0321085 0.0685999 0)
(-0.0539826 0.0524225 0)
(-0.0590228 0.043599 0)
(-0.0644827 0.0211075 0)
(-0.0636021 0.0124136 0)
(-0.0642393 -0.00522186 0)
(-0.0687135 -0.0134617 0)
(-0.0645291 -0.0392933 0)
(-0.0615879 -0.0505251 0)
(-0.0351457 -0.0828478 0)
(-0.02797 0.150861 0)
(-0.0384214 0.0729098 0)
(-0.0338494 0.0541725 0)
(-0.0328853 0.0214615 0)
(-0.0290999 0.0121146 0)
(-0.0257564 -0.00530162 0)
(-0.0314388 -0.0152062 0)
(-0.0252227 -0.052416 0)
(-0.0362412 -0.0796311 0)
(-0.0165631 -0.171913 0)
(0.129958 0.127922 0)
(0.166841 0.0548425 0)
(0.250202 0.0384482 0)
(0.26594 0.0146268 0)
(0.283402 0.00737075 0)
(0.288509 -0.00386412 0)
(0.271623 -0.00991885 0)
(0.266367 -0.0335356 0)
(0.180641 -0.0511775 0)
(0.140603 -0.126303 0)
)
;

boundaryField
{
    movingWall
    {
        type            fixedValue;
        value           uniform (1 0 0);
    }
    fixedWalls
    {
        type            noSlip;
    }
    frontAndBack
    {
        type            empty;
    }
}


// ************************************************************************* //
