/*--------------------------------*- C++ -*----------------------------------*\
| =========                 |                                                 |
| \\      /  F ield         | OpenFOAM: The Open Source CFD Toolbox           |
|  \\    /   O peration     | Version:  4.1                                   |
|   \\  /    A nd           | Web:      www.OpenFOAM.org                      |
|    \\/     M anipulation  |                                                 |
\*---------------------------------------------------------------------------*/
FoamFile
{
    version     2.0;
    format      ascii;
    class       volVectorField;
    location    "0.08";
    object      U;
}
// * * * * * * * * * * * * * * * * * * * * * * * * * * * * * * * * * * * * * //

dimensions      [0 1 -1 0 0 0 0];

internalField   nonuniform List<vector> 
100
(
(-0.00201205 0.00151949 0)
(-0.00523396 0.00163816 0)
(-0.0119825 0.00169761 0)
(-0.0150967 0.000643126 0)
(-0.0183143 0.000226087 0)
(-0.0187129 -0.00119742 0)
(-0.0167584 -0.00174782 0)
(-0.0137738 -0.00310499 0)
(-0.00644934 -0.00316491 0)
(-0.00268432 -0.00297787 0)
(-0.00323759 0.00577527 0)
(-0.00998201 0.00824292 0)
(-0.0213242 0.00846348 0)
(-0.027035 0.00544404 0)
(-0.0321778 0.00380256 0)
(-0.0327914 -0.000657533 0)
(-0.0295346 -0.00280124 0)
(-0.024027 -0.00744807 0)
(-0.0118829 -0.00772434 0)
(-0.00405895 -0.00612435 0)
(-0.00384948 0.0147631 0)
(-0.01194 0.0195207 0)
(-0.0250781 0.0190293 0)
(-0.0318308 0.0110505 0)
(-0.0380565 0.00628477 0)
(-0.039036 -0.00444059 0)
(-0.0358896 -0.0103538 0)
(-0.0295939 -0.0213982 0)
(-0.0154579 -0.0232643 0)
(-0.00551622 -0.0192731 0)
(-0.00601976 0.0214082 0)
(-0.0169103 0.0291921 0)
(-0.0338132 0.0286025 0)
(-0.0426822 0.0181277 0)
(-0.0504893 0.011611 0)
(-0.0523028 -0.00296949 0)
(-0.0492837 -0.0114153 0)
(-0.0416509 -0.027769 0)
(-0.0235276 -0.0309968 0)
(-0.0087877 -0.0265274 0)
(-0.00708377 0.037972 0)
(-0.019799 0.0470213 0)
(-0.0392321 0.045376 0)
(-0.0496784 0.026979 0)
(-0.0594594 0.0163401 0)
(-0.0625961 -0.00676233 0)
(-0.0615058 -0.0209411 0)
(-0.0539969 -0.0485622 0)
(-0.0337947 -0.0566766 0)
(-0.0134893 -0.0527031 0)
(-0.0139468 0.0477146 0)
(-0.033394 0.0606884 0)
(-0.0582015 0.0587299 0)
(-0.0722698 0.0378292 0)
(-0.0837555 0.0255016 0)
(-0.0891012 -0.00107666 0)
(-0.0908495 -0.0184505 0)
(-0.0832692 -0.0550756 0)
(-0.059004 -0.0696896 0)
(-0.0244421 -0.0725215 0)
(-0.0157858 0.0863023 0)
(-0.0382631 0.0906326 0)
(-0.0651964 0.0855631 0)
(-0.0804252 0.0511487 0)
(-0.0935069 0.0339704 0)
(-0.0999468 -0.00174148 0)
(-0.107368 -0.0266559 0)
(-0.103075 -0.0832749 0)
(-0.0839128 -0.116681 0)
(-0.0365555 -0.139229 0)
(-0.0403187 0.0999004 0)
(-0.0752264 0.108618 0)
(-0.0909576 0.101186 0)
(-0.101414 0.0651543 0)
(-0.10609 0.0466446 0)
(-0.109455 0.0124258 0)
(-0.122649 -0.0124732 0)
(-0.118437 -0.0776763 0)
(-0.112301 -0.132091 0)
(-0.0494745 -0.190382 0)
(-0.0353292 0.204791 0)
(-0.0338828 0.139475 0)
(-0.0167885 0.114898 0)
(0.00239858 0.0638507 0)
(0.0146151 0.0435778 0)
(0.0333724 0.0113279 0)
(0.0259433 -0.0168817 0)
(0.0369868 -0.0987812 0)
(-0.00334897 -0.186977 0)
(0.000926174 -0.309759 0)
(0.150063 0.163134 0)
(0.233716 0.08756 0)
(0.366435 0.066678 0)
(0.421229 0.0331568 0)
(0.460263 0.0190265 0)
(0.486782 0.00120179 0)
(0.470882 -0.0100419 0)
(0.463075 -0.0446833 0)
(0.324658 -0.0835158 0)
(0.196048 -0.17968 0)
)
;

boundaryField
{
    movingWall
    {
        type            fixedValue;
        value           uniform (1 0 0);
    }
    fixedWalls
    {
        type            noSlip;
    }
    frontAndBack
    {
        type            empty;
    }
}


// ************************************************************************* //
