/*--------------------------------*- C++ -*----------------------------------*\
| =========                 |                                                 |
| \\      /  F ield         | OpenFOAM: The Open Source CFD Toolbox           |
|  \\    /   O peration     | Version:  4.1                                   |
|   \\  /    A nd           | Web:      www.OpenFOAM.org                      |
|    \\/     M anipulation  |                                                 |
\*---------------------------------------------------------------------------*/
FoamFile
{
    version     2.0;
    format      ascii;
    class       volVectorField;
    location    "0.0533";
    object      U;
}
// * * * * * * * * * * * * * * * * * * * * * * * * * * * * * * * * * * * * * //

dimensions      [0 1 -1 0 0 0 0];

internalField   nonuniform List<vector> 
441
(
(0.0034078 -0.00460181 0)
(0.00873192 -0.00256428 0)
(-0.000641083 -2.17925e-165 0)
(0.00175034 -2.87902e-266 0)
(-0.00868886 -0.00700195 0)
(-0.00175034 -2.77329e-232 0)
(-1.09096e-202 -4.76446e-203 0)
(-1.19095e-203 -6.13973e-228 0)
(-1.53045e-212 -2.62916e-213 0)
(-0.00543547 8.14398e-266 0)
(-0.0658075 0.0217441 0)
(-0.0832307 0.0115526 0)
(-0.0946895 0.00546495 0)
(-0.0847971 0.000675931 0)
(-0.0717639 -0.00114977 0)
(-0.0502195 -0.00249683 0)
(-0.0311835 -0.00191237 0)
(-0.0131528 -0.00166336 0)
(-0.00112446 0.000300458 0)
(0.00233714 0.000965688 0)
(0.00403884 0.00256733 0)
(0.00332235 -0.00734276 0)
(-0.00197872 0.00657344 0)
(-0.0270127 0.00784668 0)
(-0.0562462 0.0105642 0)
(-0.0990614 0.0097147 0)
(-0.138209 -0.003933 0)
(-0.174344 -0.000344573 0)
(-0.208366 0.00136856 0)
(-0.238192 0.0114928 0)
(-0.268409 0.058439 0)
(-0.289312 0.0541684 0)
(-0.284634 0.0176682 0)
(-0.273484 -0.0043701 0)
(-0.239147 -0.0243014 0)
(-0.198771 -0.0335093 0)
(-0.146162 -0.0392758 0)
(-0.097604 -0.034937 0)
(-0.0524298 -0.0296077 0)
(-0.0200671 -0.0153056 0)
(-0.00409078 -0.00687175 0)
(0.00422925 0.00402585 0)
(0.00672549 -0.00648121 0)
(-0.0055844 0.0273855 0)
(-0.051026 0.0528992 0)
(-0.110968 0.0697864 0)
(-0.18273 0.0738966 0)
(-0.256213 0.0715241 0)
(-0.333741 0.067679 0)
(-0.394952 0.0617393 0)
(-0.45497 0.0577342 0)
(-0.483112 0.0552401 0)
(-0.478498 0.0388432 0)
(-0.463251 -0.00316667 0)
(-0.433607 -0.0393677 0)
(-0.380282 -0.0738797 0)
(-0.31658 -0.0932072 0)
(-0.237492 -0.103946 0)
(-0.162966 -0.0945057 0)
(-0.0923106 -0.0796956 0)
(-0.0405427 -0.0469627 0)
(-0.010413 -0.0237492 0)
(0.00559098 0.00314682 0)
(0.00597474 -0.00872965 0)
(-0.0141785 0.065958 0)
(-0.0870834 0.113277 0)
(-0.17156 0.144454 0)
(-0.269824 0.155305 0)
(-0.367324 0.14962 0)
(-0.461969 0.13988 0)
(-0.542455 0.123381 0)
(-0.608081 0.10176 0)
(-0.646041 0.0794724 0)
(-0.653189 0.034067 0)
(-0.633341 -0.0282836 0)
(-0.592959 -0.0874551 0)
(-0.522202 -0.142427 0)
(-0.437171 -0.176096 0)
(-0.331794 -0.194323 0)
(-0.231196 -0.179553 0)
(-0.133644 -0.153639 0)
(-0.0615019 -0.0963639 0)
(-0.0160733 -0.0543652 0)
(0.00740011 -0.0004253 0)
(6.34406e-165 0.00149369 0)
(-0.0209893 0.120018 0)
(-0.124247 0.209534 0)
(-0.228352 0.251213 0)
(-0.351206 0.268676 0)
(-0.469136 0.262008 0)
(-0.585293 0.241676 0)
(-0.682305 0.206896 0)
(-0.762515 0.160724 0)
(-0.809361 0.100998 0)
(-0.823555 0.0265642 0)
(-0.805125 -0.0631616 0)
(-0.758409 -0.149749 0)
(-0.674089 -0.229985 0)
(-0.569371 -0.282532 0)
(-0.435991 -0.310739 0)
(-0.307139 -0.291188 0)
(-0.176596 -0.250447 0)
(-0.0820323 -0.162864 0)
(-0.0165608 -0.0934819 0)
(0.0139591 -0.00471092 0)
(-5.16737e-266 0.00522381 0)
(-0.079675 0.194629 0)
(-0.172299 0.318843 0)
(-0.296293 0.373159 0)
(-0.4295 0.396018 0)
(-0.56506 0.384748 0)
(-0.694908 0.353653 0)
(-0.808697 0.300852 0)
(-0.902466 0.229614 0)
(-0.964984 0.139766 0)
(-0.994843 0.030107 0)
(-0.984188 -0.0944063 0)
(-0.938603 -0.218232 0)
(-0.844633 -0.332986 0)
(-0.722238 -0.413706 0)
(-0.559113 -0.458881 0)
(-0.397748 -0.437887 0)
(-0.227968 -0.381761 0)
(-0.105756 -0.254492 0)
(-0.0160687 -0.153504 0)
(0.0160728 -0.00183374 0)
(-0.0208952 0.0842697 0)
(-0.110459 0.288952 0)
(-0.217033 0.426556 0)
(-0.353016 0.506731 0)
(-0.502799 0.536753 0)
(-0.654604 0.526108 0)
(-0.802709 0.484632 0)
(-0.934844 0.413632 0)
(-1.04809 0.316846 0)
(-1.12982 0.19315 0)
(-1.17836 0.04626 0)
(-1.1815 -0.119693 0)
(-1.14296 -0.288314 0)
(-1.04446 -0.447199 0)
(-0.907472 -0.566573 0)
(-0.712369 -0.636928 0)
(-0.515094 -0.620066 0)
(-0.293052 -0.544712 0)
(-0.140817 -0.37161 0)
(-0.00350967 -0.217074 0)
(5.78466e-266 -0.0040182 0)
(-0.0152493 0.138917 0)
(-0.105053 0.391882 0)
(-0.237391 0.562014 0)
(-0.392278 0.65973 0)
(-0.560688 0.69793 0)
(-0.73072 0.685012 0)
(-0.896845 0.634266 0)
(-1.04966 0.546161 0)
(-1.18476 0.425018 0)
(-1.29101 0.269497 0)
(-1.3645 0.0821796 0)
(-1.38906 -0.130854 0)
(-1.366 -0.354785 0)
(-1.2708 -0.570578 0)
(-1.12462 -0.745081 0)
(-0.899637 -0.855145 0)
(-0.661864 -0.855523 0)
(-0.381485 -0.762053 0)
(-0.18442 -0.539513 0)
(-0.00280584 -0.303559 0)
(2.37345e-24 -1.20645e-24 0)
(-0.013489 0.201263 0)
(-0.108986 0.509337 0)
(-0.258041 0.712333 0)
(-0.428244 0.828325 0)
(-0.613757 0.874045 0)
(-0.800273 0.86081 0)
(-0.98452 0.802801 0)
(-1.15794 0.700503 0)
(-1.31651 0.558004 0)
(-1.44971 0.372289 0)
(-1.5519 0.144874 0)
(-1.60458 -0.118723 0)
(-1.6054 -0.405206 0)
(-1.5236 -0.689801 0)
(-1.37769 -0.935578 0)
(-1.12874 -1.1026 0)
(-0.851466 -1.1346 0)
(-0.503701 -1.02704 0)
(-0.250597 -0.742946 0)
(-0.00448263 -0.408775 0)
(9.74746e-77 -5.93362e-25 0)
(-0.0118959 0.262053 0)
(-0.108798 0.638116 0)
(-0.26946 0.882099 0)
(-0.450991 1.0161 0)
(-0.649437 1.0705 0)
(-0.849089 1.05582 0)
(-1.04755 0.992254 0)
(-1.23885 0.87778 0)
(-1.41846 0.716973 0)
(-1.57832 0.50417 0)
(-1.71076 0.237306 0)
(-1.79663 -0.0785644 0)
(-1.82965 -0.435225 0)
(-1.77337 -0.800869 0)
(-1.64103 -1.13917 0)
(-1.38098 -1.38705 0)
(-1.07007 -1.47903 0)
(-0.652494 -1.37267 0)
(-0.331311 -1.0333 0)
(-0.00616259 -0.568659 0)
(2.7238e-164 -2.43686e-77 0)
(-0.0123453 0.318706 0)
(-0.113337 0.765206 0)
(-0.283822 1.05236 0)
(-0.473473 1.20615 0)
(-0.679547 1.27057 0)
(-0.886252 1.257 0)
(-1.09149 1.19154 0)
(-1.29319 1.06998 0)
(-1.48596 0.897054 0)
(-1.66639 0.66371 0)
(-1.82459 0.363692 0)
(-1.94452 -0.000312315 0)
(-2.01501 -0.426641 0)
(-1.99759 -0.879388 0)
(-1.89678 -1.3248 0)
(-1.6481 -1.67719 0)
(-1.32272 -1.85828 0)
(-0.847234 -1.77348 0)
(-0.454458 -1.37805 0)
(-0.0740216 -0.752393 0)
(1.71039e-265 0.0126872 0)
(-0.0134808 0.388706 0)
(-0.115344 0.911766 0)
(-0.290131 1.24379 0)
(-0.480865 1.41257 0)
(-0.685643 1.48448 0)
(-0.889581 1.46774 0)
(-1.09 1.39983 0)
(-1.28982 1.27174 0)
(-1.48243 1.09025 0)
(-1.67089 0.841973 0)
(-1.84393 0.515324 0)
(-1.99157 0.11068 0)
(-2.09961 -0.381841 0)
(-2.13084 -0.921467 0)
(-2.08056 -1.48786 0)
(-1.87169 -1.96764 0)
(-1.55832 -2.27896 0)
(-1.04027 -2.25475 0)
(-0.558668 -1.8009 0)
(-0.0726101 -1.04213 0)
(0.0507487 -0.0698215 0)
(-0.0174356 0.443198 0)
(-0.124933 1.03893 0)
(-0.306897 1.415 0)
(-0.495812 1.59837 0)
(-0.689833 1.67747 0)
(-0.878907 1.65876 0)
(-1.05719 1.59076 0)
(-1.23707 1.46077 0)
(-1.40812 1.27772 0)
(-1.58465 1.02452 0)
(-1.75207 0.684869 0)
(-1.91361 0.255573 0)
(-2.04987 -0.28506 0)
(-2.13565 -0.897882 0)
(-2.15247 -1.57901 0)
(-2.01828 -2.20137 0)
(-1.76361 -2.6835 0)
(-1.22612 -2.78174 0)
(-0.697697 -2.33919 0)
(0.0384429 -1.36851 0)
(2.34347e-231 -0.0126872 0)
(-0.0226943 0.533977 0)
(-0.13325 1.20429 0)
(-0.315633 1.61851 0)
(-0.492948 1.79658 0)
(-0.662843 1.87067 0)
(-0.821515 1.83539 0)
(-0.959221 1.75984 0)
(-1.09836 1.62259 0)
(-1.22445 1.4384 0)
(-1.36372 1.18569 0)
(-1.49959 0.843934 0)
(-1.65046 0.408211 0)
(-1.79639 -0.160235 0)
(-1.92891 -0.819598 0)
(-2.02399 -1.60475 0)
(-2.00346 -2.36101 0)
(-1.86977 -3.07046 0)
(-1.41705 -3.3387 0)
(-0.887786 -3.05984 0)
(-0.0035357 -1.77611 0)
(5.69434e-202 4.52752e-184 0)
(-0.03925 0.592075 0)
(-0.169638 1.32579 0)
(-0.361636 1.77082 0)
(-0.525062 1.94006 0)
(-0.652663 2.0044 0)
(-0.761734 1.95167 0)
(-0.830748 1.86729 0)
(-0.903019 1.72468 0)
(-0.95315 1.54345 0)
(-1.0266 1.30021 0)
(-1.0982 0.97272 0)
(-1.21133 0.554666 0)
(-1.33573 -0.00364406 0)
(-1.50309 -0.666484 0)
(-1.66398 -1.49678 0)
(-1.79759 -2.3526 0)
(-1.8267 -3.25422 0)
(-1.57721 -3.77269 0)
(-1.12106 -3.72996 0)
(-0.0109077 -2.28596 0)
(1.81101e-183 -1.5332e-185 0)
(-0.0582353 0.750797 0)
(-0.207283 1.53098 0)
(-0.395676 1.9833 0)
(-0.529028 2.08897 0)
(-0.595166 2.11445 0)
(-0.634215 2.01415 0)
(-0.614025 1.90534 0)
(-0.597054 1.74572 0)
(-0.548412 1.5637 0)
(-0.529618 1.33196 0)
(-0.508962 1.02843 0)
(-0.549349 0.647892 0)
(-0.617445 0.12965 0)
(-0.776011 -0.488079 0)
(-0.978022 -1.31349 0)
(-1.2473 -2.19486 0)
(-1.50129 -3.29595 0)
(-1.57285 -4.05151 0)
(-1.42811 -4.64394 0)
(-0.460907 -2.94402 0)
(4.37301e-254 -4.52752e-184 0)
(-0.123827 0.843523 0)
(-0.34033 1.65008 0)
(-0.521659 2.08731 0)
(-0.608448 2.12982 0)
(-0.559542 2.10879 0)
(-0.490281 1.96559 0)
(-0.333824 1.83107 0)
(-0.195245 1.65805 0)
(-0.0155337 1.47751 0)
(0.118159 1.26309 0)
(0.256137 0.994531 0)
(0.306264 0.668973 0)
(0.326374 0.226579 0)
(0.192251 -0.296579 0)
(0.00396128 -1.01746 0)
(-0.426356 -1.81815 0)
(-0.84646 -2.90259 0)
(-1.54305 -3.84498 0)
(-1.69127 -4.75298 0)
(-2.06339 -3.79039 0)
(-2.55098e-264 -0.213784 0)
(-0.179133 1.23628 0)
(-0.431355 1.93311 0)
(-0.542317 2.27368 0)
(-0.524925 2.12712 0)
(-0.31965 2.01013 0)
(-0.104787 1.78813 0)
(0.207724 1.61693 0)
(0.485491 1.42758 0)
(0.802726 1.25239 0)
(1.05873 1.06204 0)
(1.31587 0.839683 0)
(1.46957 0.582528 0)
(1.58903 0.240212 0)
(1.53118 -0.156185 0)
(1.40106 -0.705546 0)
(0.979337 -1.32782 0)
(0.46734 -2.20983 0)
(-0.43278 -3.16267 0)
(-1.13214 -4.2124 0)
(-1.85079 -4.48892 0)
(-0.855135 -2.30294 0)
(-0.399834 1.41958 0)
(-0.72915 1.98456 0)
(-0.536127 2.17504 0)
(-0.275246 1.89035 0)
(0.25593 1.68974 0)
(0.69303 1.43045 0)
(1.22115 1.24288 0)
(1.65415 1.0611 0)
(2.10973 0.906174 0)
(2.47045 0.75281 0)
(2.82277 0.5859 0)
(3.04811 0.404343 0)
(3.24198 0.16828 0)
(3.23026 -0.0929424 0)
(3.16919 -0.461828 0)
(2.76101 -0.862077 0)
(2.30558 -1.49048 0)
(1.30193 -2.2151 0)
(0.416136 -3.33873 0)
(-0.724377 -3.99011 0)
(-0.698605 -2.96111 0)
(-0.255488 2.42711 0)
(-0.0982969 2.06406 0)
(0.687103 1.87038 0)
(1.32576 1.32738 0)
(2.12733 1.0624 0)
(2.7365 0.816356 0)
(3.37096 0.662182 0)
(3.86565 0.53497 0)
(4.35046 0.436591 0)
(4.72223 0.348651 0)
(5.07248 0.260281 0)
(5.29448 0.168454 0)
(5.48536 0.0545747 0)
(5.48538 -0.0706456 0)
(5.4496 -0.246108 0)
(5.1004 -0.442428 0)
(4.72486 -0.781495 0)
(3.80485 -1.24055 0)
(2.84985 -2.25326 0)
(1.08472 -3.32835 0)
(-0.044753 -3.80004 0)
(1.6686 1.67089 0)
(2.70882 0.976164 0)
(4.55207 0.749221 0)
(5.3897 0.423451 0)
(6.25178 0.284964 0)
(6.75375 0.175945 0)
(7.22369 0.119071 0)
(7.53785 0.0791099 0)
(7.82822 0.053487 0)
(8.02625 0.033951 0)
(8.20744 0.0166903 0)
(8.30005 0.000312367 0)
(8.37899 -0.0202605 0)
(8.33031 -0.0410677 0)
(8.27851 -0.0768942 0)
(8.00015 -0.110786 0)
(7.74994 -0.201089 0)
(6.9988 -0.294538 0)
(6.26499 -0.627101 0)
(4.04723 -0.999149 0)
(2.0074 -1.82023 0)
)
;

boundaryField
{
    movingWall
    {
        type            fixedValue;
        value           uniform (10 0 0);
    }
    fixedWalls
    {
        type            noSlip;
    }
    frontAndBack
    {
        type            empty;
    }
}


// ************************************************************************* //
