/*--------------------------------*- C++ -*----------------------------------*\
| =========                 |                                                 |
| \\      /  F ield         | OpenFOAM: The Open Source CFD Toolbox           |
|  \\    /   O peration     | Version:  4.1                                   |
|   \\  /    A nd           | Web:      www.OpenFOAM.org                      |
|    \\/     M anipulation  |                                                 |
\*---------------------------------------------------------------------------*/
FoamFile
{
    version     2.0;
    format      ascii;
    class       volVectorField;
    location    "0.0709";
    object      U;
}
// * * * * * * * * * * * * * * * * * * * * * * * * * * * * * * * * * * * * * //

dimensions      [0 1 -1 0 0 0 0];

internalField   nonuniform List<vector> 
441
(
(0.00358366 -0.00471717 0)
(0.00930606 -0.00254162 0)
(-0.000635407 -2.19066e-165 0)
(0.00187572 -3.147e-266 0)
(-0.00843661 -0.0075034 0)
(-0.00187572 -2.93978e-232 0)
(-1.11657e-202 -5.28572e-203 0)
(-1.3213e-203 -6.90967e-228 0)
(-1.64799e-212 -3.00414e-213 0)
(-0.00587917 8.74399e-266 0)
(-0.0718501 0.0235184 0)
(-0.090542 0.0123686 0)
(-0.102402 0.00572757 0)
(-0.0907037 0.000489014 0)
(-0.0753934 -0.00148582 0)
(-0.051113 -0.00285299 0)
(-0.0299959 -0.00209185 0)
(-0.0107887 -0.00164249 0)
(0.00126913 0.000570498 0)
(0.00368088 0.00130495 0)
(0.00437776 0.00283985 0)
(0.00361616 -0.00798374 0)
(-0.00132853 0.00670107 0)
(-0.0271408 0.00819595 0)
(-0.0578817 0.0106021 0)
(-0.103523 0.0104101 0)
(-0.146249 -0.00347134 0)
(-0.186314 -0.000214208 0)
(-0.224696 0.00155691 0)
(-0.258754 0.0126083 0)
(-0.293213 0.0639303 0)
(-0.31691 0.0590717 0)
(-0.311848 0.018581 0)
(-0.298497 -0.00611979 0)
(-0.259153 -0.0282543 0)
(-0.212751 -0.038253 0)
(-0.153528 -0.0438242 0)
(-0.0995616 -0.0380424 0)
(-0.0508209 -0.0308834 0)
(-0.0172482 -0.0145308 0)
(-0.00224273 -0.00514652 0)
(0.0046893 0.00544206 0)
(0.00723528 -0.00752112 0)
(-0.00529857 0.0278286 0)
(-0.05277 0.0551736 0)
(-0.116631 0.0739378 0)
(-0.194263 0.0797307 0)
(-0.274445 0.0787879 0)
(-0.36031 0.0756986 0)
(-0.429777 0.0700747 0)
(-0.498156 0.0658934 0)
(-0.531553 0.0625765 0)
(-0.527872 0.043067 0)
(-0.511238 -0.00484296 0)
(-0.477204 -0.0462901 0)
(-0.416315 -0.085072 0)
(-0.343415 -0.10615 0)
(-0.254327 -0.116331 0)
(-0.171186 -0.103622 0)
(-0.0942095 -0.0844727 0)
(-0.0392998 -0.0469089 0)
(-0.00899586 -0.0210728 0)
(0.00610178 0.00569351 0)
(0.00618243 -0.0102175 0)
(-0.0154189 0.0684216 0)
(-0.0930086 0.119523 0)
(-0.184125 0.154442 0)
(-0.291196 0.168587 0)
(-0.398688 0.165265 0)
(-0.504359 0.156773 0)
(-0.59566 0.140275 0)
(-0.670878 0.116745 0)
(-0.715371 0.0910029 0)
(-0.724737 0.0384991 0)
(-0.703043 -0.0332033 0)
(-0.656927 -0.101193 0)
(-0.576433 -0.163211 0)
(-0.479433 -0.200068 0)
(-0.360785 -0.217574 0)
(-0.24825 -0.197598 0)
(-0.141174 -0.164442 0)
(-0.0633454 -0.0988718 0)
(-0.0159198 -0.051934 0)
(0.00780555 0.00293032 0)
(6.68031e-165 0.00154561 0)
(-0.023228 0.126573 0)
(-0.134467 0.223102 0)
(-0.247975 0.270711 0)
(-0.382831 0.293216 0)
(-0.513693 0.290148 0)
(-0.64383 0.271394 0)
(-0.754033 0.235522 0)
(-0.845792 0.184902 0)
(-0.900375 0.117127 0)
(-0.917552 0.031154 0)
(-0.897297 -0.0724022 0)
(-0.843929 -0.172134 0)
(-0.74817 -0.262921 0)
(-0.628977 -0.32071 0)
(-0.479038 -0.348406 0)
(-0.334665 -0.321743 0)
(-0.190804 -0.270504 0)
(-0.0875333 -0.17045 0)
(-0.0177209 -0.0931004 0)
(0.0144082 -0.00162503 0)
(-5.41999e-266 0.00556648 0)
(-0.0858174 0.20754 0)
(-0.187619 0.342328 0)
(-0.323731 0.404625 0)
(-0.47116 0.434187 0)
(-0.622204 0.42733 0)
(-0.768111 0.397738 0)
(-0.897061 0.342489 0)
(-1.00386 0.263955 0)
(-1.07553 0.161982 0)
(-1.10967 0.0357171 0)
(-1.09768 -0.10785 0)
(-1.0453 -0.250069 0)
(-0.938814 -0.379787 0)
(-0.800051 -0.468746 0)
(-0.61736 -0.514363 0)
(-0.436939 -0.484774 0)
(-0.249716 -0.414726 0)
(-0.115507 -0.269975 0)
(-0.0191467 -0.157102 0)
(0.0161264 0.000918087 0)
(-0.0222659 0.0905337 0)
(-0.119525 0.31068 0)
(-0.236887 0.461387 0)
(-0.386707 0.552449 0)
(-0.552588 0.590887 0)
(-0.721671 0.585657 0)
(-0.887567 0.54545 0)
(-1.03637 0.470345 0)
(-1.16404 0.363136 0)
(-1.25612 0.222684 0)
(-1.31007 0.0537977 0)
(-1.31269 -0.137089 0)
(-1.26776 -0.330002 0)
(-1.15654 -0.509113 0)
(-1.00223 -0.640699 0)
(-0.785345 -0.713396 0)
(-0.565948 -0.687108 0)
(-0.322043 -0.594387 0)
(-0.154198 -0.397769 0)
(-0.00625173 -0.226579 0)
(5.91303e-266 -0.0040316 0)
(-0.0163923 0.149775 0)
(-0.114375 0.423312 0)
(-0.259276 0.610073 0)
(-0.429284 0.721107 0)
(-0.614901 0.769393 0)
(-0.803135 0.762603 0)
(-0.987736 0.712751 0)
(-1.15784 0.618828 0)
(-1.30789 0.484125 0)
(-1.42517 0.307445 0)
(-1.50496 0.0926928 0)
(-1.52995 -0.151243 0)
(-1.50164 -0.405704 0)
(-1.39465 -0.647553 0)
(-1.23177 -0.839251 0)
(-0.984401 -0.954795 0)
(-0.7229 -0.946428 0)
(-0.416807 -0.832805 0)
(-0.200864 -0.581149 0)
(-0.00340449 -0.320802 0)
(2.53303e-24 -1.10764e-24 0)
(-0.0145672 0.21776 0)
(-0.11823 0.551724 0)
(-0.279979 0.774705 0)
(-0.465191 0.906236 0)
(-0.667611 0.963433 0)
(-0.87179 0.956888 0)
(-1.07381 0.899242 0)
(-1.26372 0.789341 0)
(-1.43654 0.630212 0)
(-1.58035 0.419091 0)
(-1.68894 0.159152 0)
(-1.74286 -0.140962 0)
(-1.74004 -0.463884 0)
(-1.64873 -0.780316 0)
(-1.48876 -1.04877 0)
(-1.21952 -1.22547 0)
(-0.91951 -1.25105 0)
(-0.544745 -1.12173 0)
(-0.270503 -0.803482 0)
(-0.00483796 -0.43526 0)
(1.034e-76 -6.33257e-25 0)
(-0.0127355 0.283163 0)
(-0.116636 0.690426 0)
(-0.288568 0.957773 0)
(-0.483383 1.10932 0)
(-0.696723 1.17642 0)
(-0.911742 1.16875 0)
(-1.12542 1.10491 0)
(-1.33059 0.981112 0)
(-1.52199 0.800907 0)
(-1.69054 0.559099 0)
(-1.82838 0.255504 0)
(-1.91578 -0.101359 0)
(-1.94701 -0.499192 0)
(-1.88469 -0.901493 0)
(-1.74303 -1.26763 0)
(-1.46782 -1.53003 0)
(-1.13864 -1.61968 0)
(-0.696121 -1.49213 0)
(-0.35387 -1.11543 0)
(-0.00684955 -0.606557 0)
(2.87976e-164 -2.58499e-77 0)
(-0.0128942 0.343727 0)
(-0.11874 0.825812 0)
(-0.297372 1.13916 0)
(-0.496788 1.31213 0)
(-0.713806 1.39009 0)
(-0.931599 1.38355 0)
(-1.14749 1.31697 0)
(-1.35844 1.18441 0)
(-1.55866 0.989714 0)
(-1.74421 0.724595 0)
(-1.9055 0.384964 0)
(-2.02645 -0.0227676 0)
(-2.09686 -0.492998 0)
(-2.07759 -0.985262 0)
(-1.97392 -1.46229 0)
(-1.71819 -1.8337 0)
(-1.38278 -2.01783 0)
(-0.889246 -1.91476 0)
(-0.478507 -1.4811 0)
(-0.0788421 -0.802234 0)
(1.76793e-265 0.0131394 0)
(-0.0136036 0.415706 0)
(-0.117118 0.977074 0)
(-0.295365 1.33731 0)
(-0.490648 1.52644 0)
(-0.700625 1.61237 0)
(-0.90958 1.60237 0)
(-1.1143 1.53236 0)
(-1.3171 1.39179 0)
(-1.51131 1.18681 0)
(-1.70005 0.905181 0)
(-1.87282 0.537778 0)
(-2.02023 0.0889543 0)
(-2.12939 -0.447514 0)
(-2.16294 -1.02671 0)
(-2.11679 -1.62592 0)
(-1.91064 -2.12778 0)
(-1.59806 -2.44748 0)
(-1.07224 -2.41075 0)
(-0.578848 -1.92 0)
(-0.0750863 -1.10476 0)
(0.0525576 -0.0745635 0)
(-0.0170592 0.470076 0)
(-0.122318 1.10463 0)
(-0.301944 1.50978 0)
(-0.488947 1.71408 0)
(-0.681095 1.8072 0)
(-0.867865 1.79463 0)
(-1.043 1.72352 0)
(-1.21871 1.57986 0)
(-1.38492 1.37238 0)
(-1.55651 1.08556 0)
(-1.72 0.705846 0)
(-1.87971 0.234215 0)
(-2.01773 -0.347682 0)
(-2.1092 -0.997089 0)
(-2.13644 -1.70925 0)
(-2.01441 -2.35423 0)
(-1.77266 -2.84965 0)
(-1.23997 -2.94285 0)
(-0.711013 -2.47181 0)
(0.0415386 -1.44073 0)
(2.42618e-231 -0.0131394 0)
(-0.0217786 0.558026 0)
(-0.125935 1.26502 0)
(-0.299739 1.70781 0)
(-0.468157 1.9067 0)
(-0.628621 1.99445 0)
(-0.77736 1.96464 0)
(-0.904448 1.8852 0)
(-1.03266 1.73381 0)
(-1.14815 1.52538 0)
(-1.27817 1.24028 0)
(-1.40733 0.860909 0)
(-1.55525 0.386687 0)
(-1.70332 -0.21811 0)
(-1.84386 -0.908436 0)
(-1.95358 -1.71976 0)
(-1.95283 -2.49578 0)
(-1.84228 -3.22054 0)
(-1.40898 -3.49059 0)
(-0.892037 -3.19524 0)
(-0.00318246 -1.85319 0)
(5.7868e-202 4.56976e-184 0)
(-0.0378846 0.610831 0)
(-0.158238 1.37653 0)
(-0.335999 1.84825 0)
(-0.484081 2.03753 0)
(-0.595264 2.11491 0)
(-0.687584 2.06715 0)
(-0.739637 1.97868 0)
(-0.795723 1.82244 0)
(-0.83131 1.6185 0)
(-0.893166 1.34557 0)
(-0.957062 0.984341 0)
(-1.06745 0.532812 0)
(-1.19471 -0.0557787 0)
(-1.37137 -0.742732 0)
(-1.54851 -1.59221 0)
(-1.70537 -2.46218 0)
(-1.76346 -3.3771 0)
(-1.5439 -3.90175 0)
(-1.11278 -3.85422 0)
(-0.0112992 -2.36297 0)
(1.8279e-183 -9.81576e-185 0)
(-0.0566236 0.762254 0)
(-0.193389 1.56745 0)
(-0.363692 2.04317 0)
(-0.477033 2.16741 0)
(-0.521628 2.2052 0)
(-0.539074 2.10982 0)
(-0.497734 1.9977 0)
(-0.46159 1.82638 0)
(-0.396765 1.62474 0)
(-0.366204 1.3675 0)
(-0.338831 1.03524 0)
(-0.378185 0.626787 0)
(-0.450745 0.0842168 0)
(-0.619549 -0.551138 0)
(-0.837415 -1.38882 0)
(-1.12943 -2.27723 0)
(-1.41232 -3.38673 0)
(-1.5189 -4.14805 0)
(-1.4065 -4.74492 0)
(-0.464465 -3.01314 0)
(4.39425e-254 -4.56976e-184 0)
(-0.12238 0.847004 0)
(-0.32687 1.67052 0)
(-0.489368 2.12685 0)
(-0.554667 2.18583 0)
(-0.482166 2.1763 0)
(-0.389387 2.03838 0)
(-0.21021 1.90224 0)
(-0.0516802 1.72056 0)
(0.144168 1.52478 0)
(0.288627 1.29016 0)
(0.431606 0.998641 0)
(0.480537 0.650784 0)
(0.494221 0.189351 0)
(0.348629 -0.346617 0)
(0.145462 -1.07428 0)
(-0.305081 -1.87617 0)
(-0.748945 -2.96149 0)
(-1.47922 -3.90647 0)
(-1.65879 -4.81835 0)
(-2.0705 -3.84581 0)
(-2.57935e-264 -0.215327 0)
(-0.178455 1.23308 0)
(-0.422236 1.93881 0)
(-0.517798 2.29336 0)
(-0.48154 2.16044 0)
(-0.254499 2.05376 0)
(-0.0174575 1.83745 0)
(0.316806 1.66658 0)
(0.613712 1.47211 0)
(0.946352 1.28659 0)
(1.21235 1.08192 0)
(1.47356 0.84287 0)
(1.62501 0.569227 0)
(1.7369 0.212811 0)
(1.66693 -0.192855 0)
(1.52227 -0.745935 0)
(1.08355 -1.36645 0)
(0.553542 -2.24392 0)
(-0.369885 -3.19425 0)
(-1.09476 -4.24361 0)
(-1.84421 -4.5227 0)
(-0.86131 -2.31288 0)
(-0.400333 1.41342 0)
(-0.727429 1.98118 0)
(-0.526187 2.18037 0)
(-0.252813 1.90559 0)
(0.294836 1.71318 0)
(0.750091 1.45909 0)
(1.29712 1.27303 0)
(1.74754 1.08896 0)
(2.21775 0.928089 0)
(2.58844 0.765912 0)
(2.94529 0.588393 0)
(3.16903 0.396167 0)
(3.35593 0.150895 0)
(3.33257 -0.116342 0)
(3.25762 -0.487309 0)
(2.83418 -0.885483 0)
(2.36488 -1.50882 0)
(1.34661 -2.22854 0)
(0.446517 -3.34911 0)
(-0.711709 -4.00141 0)
(-0.700454 -2.9633 0)
(-0.256695 2.42275 0)
(-0.102511 2.05932 0)
(0.68353 1.86919 0)
(1.32729 1.33138 0)
(2.13849 1.07102 0)
(2.76018 0.828163 0)
(3.40897 0.675195 0)
(3.91771 0.547198 0)
(4.41487 0.446138 0)
(4.79543 0.354075 0)
(5.15002 0.260729 0)
(5.37109 0.163946 0)
(5.55628 0.0459645 0)
(5.54653 -0.0817189 0)
(5.49898 -0.257496 0)
(5.13737 -0.452162 0)
(4.75137 -0.787724 0)
(3.82284 -1.24358 0)
(2.86171 -2.25351 0)
(1.09016 -3.32975 0)
(-0.0458113 -3.79924 0)
(1.66768 1.66999 0)
(2.70467 0.975068 0)
(4.54555 0.748548 0)
(5.38362 0.423598 0)
(6.24918 0.285882 0)
(6.7569 0.177368 0)
(7.23397 0.120626 0)
(7.5553 0.0804519 0)
(7.85187 0.0543004 0)
(8.05398 0.0340508 0)
(8.23664 0.0160029 0)
(8.32765 -0.00104282 0)
(8.40251 -0.02205 0)
(8.34768 -0.042903 0)
(8.28932 -0.0783973 0)
(8.00465 -0.111611 0)
(7.7503 -0.201036 0)
(6.99693 -0.293745 0)
(6.26323 -0.625736 0)
(4.04626 -0.997847 0)
(2.00587 -1.81857 0)
)
;

boundaryField
{
    movingWall
    {
        type            fixedValue;
        value           uniform (10 0 0);
    }
    fixedWalls
    {
        type            noSlip;
    }
    frontAndBack
    {
        type            empty;
    }
}


// ************************************************************************* //
