/*--------------------------------*- C++ -*----------------------------------*\
| =========                 |                                                 |
| \\      /  F ield         | OpenFOAM: The Open Source CFD Toolbox           |
|  \\    /   O peration     | Version:  4.1                                   |
|   \\  /    A nd           | Web:      www.OpenFOAM.org                      |
|    \\/     M anipulation  |                                                 |
\*---------------------------------------------------------------------------*/
FoamFile
{
    version     2.0;
    format      ascii;
    class       volVectorField;
    location    "6.25";
    object      U;
}
// * * * * * * * * * * * * * * * * * * * * * * * * * * * * * * * * * * * * * //

dimensions      [0 1 -1 0 0 0 0];

internalField   nonuniform List<vector> 
400
(
(0.000182333 -0.000179479 0)
(-0.000113189 8.86321e-05 0)
(-0.00150358 0.00032255 0)
(-0.0036006 0.000494148 0)
(-0.00618244 0.000577231 0)
(-0.00893021 0.000604335 0)
(-0.0116328 0.000580382 0)
(-0.0140623 0.000509651 0)
(-0.0160058 0.000386483 0)
(-0.017241 0.000208951 0)
(-0.0175713 -1.73248e-05 0)
(-0.0168623 -0.000272182 0)
(-0.0150924 -0.00052063 0)
(-0.0124013 -0.000714797 0)
(-0.00909688 -0.000807506 0)
(-0.00565708 -0.000759694 0)
(-0.00260428 -0.000571628 0)
(-0.000476232 -0.000261254 0)
(0.000495439 5.68511e-05 0)
(0.000298057 0.000283354 0)
(-9.10456e-05 0.000104117 0)
(-0.00197269 0.00186273 0)
(-0.00616122 0.00348635 0)
(-0.0118012 0.00464516 0)
(-0.0184191 0.00523603 0)
(-0.0253277 0.00534589 0)
(-0.0320066 0.00501232 0)
(-0.037905 0.00425419 0)
(-0.0425107 0.00306903 0)
(-0.0453272 0.00148233 0)
(-0.0459449 -0.000419949 0)
(-0.0441153 -0.00246394 0)
(-0.0398407 -0.00438859 0)
(-0.0334567 -0.0058729 0)
(-0.0256382 -0.00660632 0)
(-0.0173939 -0.00636521 0)
(-0.00982875 -0.00513938 0)
(-0.00407863 -0.00313451 0)
(-0.000669935 -0.000979559 0)
(0.000159658 0.000527657 0)
(-0.00039841 0.0016145 0)
(-0.00412169 0.00616644 0)
(-0.0111248 0.00999152 0)
(-0.0200085 0.0126167 0)
(-0.0301025 0.0139081 0)
(-0.0404601 0.0139999 0)
(-0.0503515 0.0129652 0)
(-0.0590041 0.0108462 0)
(-0.0657053 0.0076707 0)
(-0.0697816 0.00354062 0)
(-0.0706897 -0.00130067 0)
(-0.0681056 -0.00642148 0)
(-0.0620297 -0.0112078 0)
(-0.0528886 -0.014927 0)
(-0.0415517 -0.0168709 0)
(-0.0293505 -0.0165323 0)
(-0.0177879 -0.0138592 0)
(-0.00849846 -0.00931933 0)
(-0.00233381 -0.00419526 0)
(-2.57248e-05 -9.14789e-05 0)
(-0.000698562 0.00422126 0)
(-0.00622733 0.0127073 0)
(-0.0159299 0.0192834 0)
(-0.0278074 0.0235857 0)
(-0.0410037 0.0255801 0)
(-0.0543674 0.0254863 0)
(-0.0670361 0.0234273 0)
(-0.0780971 0.0194757 0)
(-0.086713 0.0137013 0)
(-0.0920897 0.00630169 0)
(-0.0935739 -0.00229641 0)
(-0.0907419 -0.0113692 0)
(-0.0835133 -0.0199004 0)
(-0.0722804 -0.0266716 0)
(-0.0579596 -0.0304731 0)
(-0.0420862 -0.0303905 0)
(-0.0265091 -0.0262195 0)
(-0.0134356 -0.0186408 0)
(-0.00418166 -0.00961242 0)
(-0.000211396 -0.00158297 0)
(-0.000955264 0.00789882 0)
(-0.00812367 0.0214622 0)
(-0.0203106 0.0313275 0)
(-0.0349265 0.0374881 0)
(-0.0509389 0.0401637 0)
(-0.0670297 0.0397251 0)
(-0.0822598 0.036372 0)
(-0.0956381 0.0302137 0)
(-0.106255 0.0213616 0)
(-0.113227 0.0101017 0)
(-0.115784 -0.00296647 0)
(-0.113348 -0.0168332 0)
(-0.105657 -0.0300645 0)
(-0.0929286 -0.040895 0)
(-0.0759774 -0.0474819 0)
(-0.0564382 -0.0483059 0)
(-0.036499 -0.0427912 0)
(-0.0190947 -0.0316843 0)
(-0.00622813 -0.0176227 0)
(-0.000382154 -0.00403579 0)
(-0.00117611 0.0124849 0)
(-0.00977177 0.032137 0)
(-0.0241464 0.0457675 0)
(-0.0411831 0.0539401 0)
(-0.059698 0.0572854 0)
(-0.0782476 0.0564046 0)
(-0.0958642 0.0516113 0)
(-0.111533 0.0430552 0)
(-0.124319 0.0308712 0)
(-0.133275 0.0153951 0)
(-0.137509 -0.00265505 0)
(-0.136242 -0.0220415 0)
(-0.12893 -0.0409463 0)
(-0.115467 -0.0570249 0)
(-0.0963852 -0.0676574 0)
(-0.0732544 -0.0704453 0)
(-0.0485355 -0.0640762 0)
(-0.0260387 -0.0490633 0)
(-0.00874604 -0.0286716 0)
(-0.000587849 -0.0075661 0)
(-0.00135344 0.0178522 0)
(-0.0111186 0.0444727 0)
(-0.027306 0.0622958 0)
(-0.0463602 0.0726349 0)
(-0.0669786 0.0766768 0)
(-0.0876374 0.0753353 0)
(-0.107385 0.0690799 0)
(-0.125234 0.0581035 0)
(-0.140275 0.0425366 0)
(-0.151536 0.0227049 0)
(-0.158024 -0.000642962 0)
(-0.158745 -0.0261451 0)
(-0.152809 -0.0516882 0)
(-0.13965 -0.0743727 0)
(-0.119303 -0.0906827 0)
(-0.0930112 -0.097016 0)
(-0.0632963 -0.090793 0)
(-0.0348811 -0.0717569 0)
(-0.0120603 -0.0435813 0)
(-0.000877382 -0.0124992 0)
(-0.00148319 0.0238211 0)
(-0.0121166 0.0581027 0)
(-0.0296595 0.0804611 0)
(-0.0502153 0.0930977 0)
(-0.0723945 0.0978851 0)
(-0.0946389 0.0961313 0)
(-0.116054 0.0885097 0)
(-0.135736 0.0752635 0)
(-0.152857 0.0564907 0)
(-0.166489 0.0324373 0)
(-0.175598 0.00377347 0)
(-0.179022 -0.0281604 0)
(-0.175529 -0.0611155 0)
(-0.164012 -0.0917581 0)
(-0.143799 -0.115657 0)
(-0.115439 -0.127715 0)
(-0.0810909 -0.123407 0)
(-0.0461669 -0.100823 0)
(-0.01654 -0.0634315 0)
(-0.00131741 -0.019332 0)
(-0.00156235 0.0302064 0)
(-0.0127308 0.0726277 0)
(-0.031098 0.0997481 0)
(-0.0525185 0.11475 0)
(-0.0755387 0.120312 0)
(-0.0986102 0.118214 0)
(-0.120934 0.109392 0)
(-0.141747 0.0941572 0)
(-0.160372 0.0725601 0)
(-0.176013 0.0447084 0)
(-0.187704 0.0110844 0)
(-0.194232 -0.0271621 0)
(-0.194122 -0.0678735 0)
(-0.185748 -0.107533 0)
(-0.167596 -0.140959 0)
(-0.139128 -0.161439 0)
(-0.101504 -0.161801 0)
(-0.0601772 -0.137194 0)
(-0.0225593 -0.0895388 0)
(-0.00199059 -0.028786 0)
(-0.0015979 0.0367962 0)
(-0.0129789 0.0875809 0)
(-0.031603 0.119527 0)
(-0.0531473 0.136842 0)
(-0.0761066 0.143123 0)
(-0.0989898 0.140705 0)
(-0.12113 0.130854 0)
(-0.141964 0.113986 0)
(-0.16104 0.0901117 0)
(-0.177796 0.0591691 0)
(-0.191471 0.0213693 0)
(-0.200975 -0.0224903 0)
(-0.204784 -0.0706092 0)
(-0.200916 -0.119665 0)
(-0.187048 -0.164136 0)
(-0.161269 -0.195914 0)
(-0.123029 -0.204709 0)
(-0.0766769 -0.181174 0)
(-0.0304646 -0.123235 0)
(-0.00301218 -0.0418057 0)
(-0.00162389 0.0434512 0)
(-0.0129785 0.102561 0)
(-0.0313156 0.139171 0)
(-0.052182 0.158534 0)
(-0.074024 0.16531 0)
(-0.0954736 0.162463 0)
(-0.116038 0.151679 0)
(-0.135416 0.133525 0)
(-0.153449 0.108009 0)
(-0.169908 0.0749038 0)
(-0.184372 0.0341131 0)
(-0.196061 -0.0140355 0)
(-0.20366 -0.0683461 0)
(-0.205118 -0.126133 0)
(-0.197573 -0.182172 0)
(-0.177727 -0.227648 0)
(-0.142806 -0.249259 0)
(-0.0945638 -0.2318 0)
(-0.0404707 -0.165513 0)
(-0.0045428 -0.0595723 0)
(-0.00170598 0.0500599 0)
(-0.0130171 0.117165 0)
(-0.0306538 0.157985 0)
(-0.0500507 0.178837 0)
(-0.069611 0.185643 0)
(-0.088206 0.182073 0)
(-0.105576 0.170327 0)
(-0.121761 0.151172 0)
(-0.136949 0.124664 0)
(-0.151314 0.0904509 0)
(-0.164871 0.0481441 0)
(-0.177305 -0.00243805 0)
(-0.187757 -0.0608647 0)
(-0.194466 -0.125481 0)
(-0.194511 -0.1921 0)
(-0.183575 -0.252323 0)
(-0.156659 -0.290823 0)
(-0.111521 -0.286134 0)
(-0.0524515 -0.216399 0)
(-0.00679708 -0.0834365 0)
(-0.00200217 0.0569488 0)
(-0.0136157 0.131464 0)
(-0.030326 0.1756 0)
(-0.0475061 0.19689 0)
(-0.0635366 0.202885 0)
(-0.0777367 0.198021 0)
(-0.0901645 0.185095 0)
(-0.101295 0.165105 0)
(-0.1117 0.138196 0)
(-0.121991 0.103935 0)
(-0.132651 0.0617008 0)
(-0.143905 0.0108457 0)
(-0.155525 -0.0489855 0)
(-0.16637 -0.11739 0)
(-0.174052 -0.191845 0)
(-0.17394 -0.265708 0)
(-0.159534 -0.323515 0)
(-0.123823 -0.338872 0)
(-0.0655595 -0.274173 0)
(-0.0100268 -0.114787 0)
(-0.00275935 0.0643738 0)
(-0.0157351 0.145329 0)
(-0.0315834 0.19135 0)
(-0.045833 0.211483 0)
(-0.0569062 0.215467 0)
(-0.0649794 0.208525 0)
(-0.0705538 0.194092 0)
(-0.0746718 0.173366 0)
(-0.078304 0.146591 0)
(-0.0824897 0.113289 0)
(-0.0881553 0.0726753 0)
(-0.0960488 0.0237521 0)
(-0.106637 -0.0344951 0)
(-0.119602 -0.102878 0)
(-0.133642 -0.180844 0)
(-0.144665 -0.264671 0)
(-0.146097 -0.341194 0)
(-0.126405 -0.382495 0)
(-0.077705 -0.334442 0)
(-0.0144397 -0.15455 0)
(-0.00452193 0.0745863 0)
(-0.0206355 0.160424 0)
(-0.0356305 0.205716 0)
(-0.045955 0.221919 0)
(-0.0502108 0.221985 0)
(-0.0500839 0.211799 0)
(-0.0466555 0.195362 0)
(-0.041687 0.173926 0)
(-0.0365298 0.147762 0)
(-0.0326148 0.116333 0)
(-0.0312329 0.0787535 0)
(-0.0335765 0.0338109 0)
(-0.0407629 -0.0199395 0)
(-0.0533307 -0.0842383 0)
(-0.0714252 -0.16036 0)
(-0.0922444 -0.248085 0)
(-0.110983 -0.338879 0)
(-0.112954 -0.408343 0)
(-0.0848406 -0.389769 0)
(-0.0199878 -0.202744 0)
(-0.00813634 0.0877649 0)
(-0.030873 0.175747 0)
(-0.0443382 0.216567 0)
(-0.0485794 0.22542 0)
(-0.0427014 0.219527 0)
(-0.0311967 0.205111 0)
(-0.0158453 0.186437 0)
(0.000722588 0.164565 0)
(0.0168643 0.139648 0)
(0.0308532 0.111059 0)
(0.0411615 0.0778497 0)
(0.0462851 0.0387422 0)
(0.0445923 -0.00787297 0)
(0.0348112 -0.0642035 0)
(0.0152895 -0.132799 0)
(-0.0128594 -0.216634 0)
(-0.048383 -0.313256 0)
(-0.0757403 -0.407275 0)
(-0.0802383 -0.428717 0)
(-0.0257917 -0.25614 0)
(-0.0147196 0.114257 0)
(-0.0459916 0.196765 0)
(-0.0534058 0.225004 0)
(-0.0461033 0.220088 0)
(-0.0244839 0.205062 0)
(0.00279543 0.185274 0)
(0.0334605 0.164354 0)
(0.0640974 0.142659 0)
(0.0930102 0.119927 0)
(0.118382 0.0953547 0)
(0.138648 0.0679332 0)
(0.152182 0.036433 0)
(0.157063 -0.000698936 0)
(0.151512 -0.0456566 0)
(0.132646 -0.101525 0)
(0.0998728 -0.173275 0)
(0.0497924 -0.264436 0)
(-0.0040476 -0.372676 0)
(-0.0524463 -0.43817 0)
(-0.0285989 -0.309255 0)
(-0.0256436 0.142085 0)
(-0.0659733 0.208952 0)
(-0.0490386 0.215862 0)
(-0.0164275 0.194145 0)
(0.0314403 0.170313 0)
(0.0805637 0.147054 0)
(0.129682 0.126011 0)
(0.175479 0.106582 0)
(0.216912 0.0879256 0)
(0.252616 0.0690978 0)
(0.281389 0.0491031 0)
(0.301811 0.0269001 0)
(0.312022 0.00120556 0)
(0.310011 -0.0296994 0)
(0.292243 -0.0686161 0)
(0.25664 -0.120536 0)
(0.195426 -0.192831 0)
(0.117591 -0.296082 0)
(0.0171753 -0.395078 0)
(-0.017284 -0.338664 0)
(-0.0186914 0.214826 0)
(-0.0197215 0.215428 0)
(0.0564593 0.181308 0)
(0.128051 0.139805 0)
(0.204315 0.109799 0)
(0.271875 0.0875679 0)
(0.332911 0.0704626 0)
(0.386087 0.0567247 0)
(0.431784 0.0448893 0)
(0.469743 0.0339592 0)
(0.499547 0.0230912 0)
(0.52037 0.0115684 0)
(0.530866 -0.00144117 0)
(0.529242 -0.0169143 0)
(0.512302 -0.0368401 0)
(0.477047 -0.064621 0)
(0.413747 -0.108468 0)
(0.323346 -0.18667 0)
(0.172826 -0.29651 0)
(0.0428996 -0.334988 0)
(0.211396 0.129634 0)
(0.297476 0.10101 0)
(0.451386 0.0674603 0)
(0.54335 0.0442407 0)
(0.617837 0.0289774 0)
(0.673404 0.0197416 0)
(0.717029 0.0137656 0)
(0.751403 0.00976043 0)
(0.77853 0.00682619 0)
(0.799409 0.00446137 0)
(0.814462 0.00233121 0)
(0.823611 0.00021453 0)
(0.82633 -0.00211035 0)
(0.82159 -0.00482958 0)
(0.807493 -0.00848655 0)
(0.781042 -0.0136749 0)
(0.734199 -0.0229015 0)
(0.658547 -0.0407432 0)
(0.498133 -0.0743861 0)
(0.288342 -0.13623 0)
)
;

boundaryField
{
    movingWall
    {
        type            fixedValue;
        value           uniform (1 0 0);
    }
    fixedWalls
    {
        type            noSlip;
    }
    frontAndBack
    {
        type            empty;
    }
}


// ************************************************************************* //
