/*--------------------------------*- C++ -*----------------------------------*\
| =========                 |                                                 |
| \\      /  F ield         | OpenFOAM: The Open Source CFD Toolbox           |
|  \\    /   O peration     | Version:  4.1                                   |
|   \\  /    A nd           | Web:      www.OpenFOAM.org                      |
|    \\/     M anipulation  |                                                 |
\*---------------------------------------------------------------------------*/
FoamFile
{
    version     2.0;
    format      ascii;
    class       volVectorField;
    location    "0.0522";
    object      U;
}
// * * * * * * * * * * * * * * * * * * * * * * * * * * * * * * * * * * * * * //

dimensions      [0 1 -1 0 0 0 0];

internalField   nonuniform List<vector> 
441
(
(0.00339766 -0.00459628 0)
(0.00869644 -0.00256711 0)
(-0.000641791 -2.17946e-165 0)
(0.00174212 -2.86095e-266 0)
(-0.00871312 -0.00696907 0)
(-0.00174212 -2.76249e-232 0)
(-1.08977e-202 -4.7278e-203 0)
(-1.18178e-203 -6.08404e-228 0)
(-1.52233e-212 -2.60142e-213 0)
(-0.00540418 8.10243e-266 0)
(-0.0653727 0.021619 0)
(-0.0826967 0.0114946 0)
(-0.094116 0.00544577 0)
(-0.084347 0.000689824 0)
(-0.0714761 -0.00112428 0)
(-0.0501342 -0.00246867 0)
(-0.0312564 -0.0018971 0)
(-0.0133186 -0.0016627 0)
(-0.00129801 0.000281782 0)
(0.00223954 0.00094161 0)
(0.00401271 0.00254742 0)
(0.0033038 -0.00730215 0)
(-0.00202641 0.00656828 0)
(-0.0270212 0.00782706 0)
(-0.0561657 0.0105685 0)
(-0.0988014 0.00966909 0)
(-0.13771 -0.0039698 0)
(-0.173573 -0.000354933 0)
(-0.207285 0.00135509 0)
(-0.236798 0.0114124 0)
(-0.266693 0.0580426 0)
(-0.287366 0.0538037 0)
(-0.282681 0.0175832 0)
(-0.271658 -0.00426185 0)
(-0.237661 -0.0240253 0)
(-0.197714 -0.0331657 0)
(-0.145592 -0.0389362 0)
(-0.0974395 -0.0346997 0)
(-0.0525385 -0.0295034 0)
(-0.0202736 -0.0153572 0)
(-0.00422655 -0.0069954 0)
(0.00419345 0.0039215 0)
(0.0066931 -0.00641108 0)
(-0.00561023 0.0273727 0)
(-0.050937 0.052771 0)
(-0.110635 0.0695301 0)
(-0.182013 0.0735152 0)
(-0.255047 0.071029 0)
(-0.331996 0.0671155 0)
(-0.392611 0.061135 0)
(-0.452004 0.0571221 0)
(-0.479722 0.0546674 0)
(-0.474979 0.0384784 0)
(-0.459773 -0.00311108 0)
(-0.430395 -0.0389213 0)
(-0.37759 -0.0730978 0)
(-0.314549 -0.0922698 0)
(-0.236205 -0.103025 0)
(-0.162333 -0.0938142 0)
(-0.0921628 -0.0793217 0)
(-0.0406393 -0.0469563 0)
(-0.0105215 -0.0239419 0)
(0.00554978 0.00295793 0)
(0.00596389 -0.00862743 0)
(-0.0140992 0.0658264 0)
(-0.0867141 0.112902 0)
(-0.170761 0.14382 0)
(-0.268437 0.154424 0)
(-0.365249 0.148545 0)
(-0.459109 0.138682 0)
(-0.538797 0.12214 0)
(-0.603681 0.100611 0)
(-0.641092 0.0785335 0)
(-0.647985 0.0336145 0)
(-0.628183 -0.0280582 0)
(-0.588148 -0.0865595 0)
(-0.51807 -0.140965 0)
(-0.433917 -0.174345 0)
(-0.329549 -0.192579 0)
(-0.229876 -0.178177 0)
(-0.133068 -0.152799 0)
(-0.0613709 -0.0961621 0)
(-0.0160904 -0.0545417 0)
(0.00736562 -0.00068037 0)
(6.32369e-165 0.00149097 0)
(-0.0208411 0.119626 0)
(-0.123583 0.208688 0)
(-0.22706 0.249945 0)
(-0.349091 0.267025 0)
(-0.466106 0.26005 0)
(-0.581241 0.23954 0)
(-0.677247 0.204759 0)
(-0.756527 0.158828 0)
(-0.802688 0.0996189 0)
(-0.816526 0.0259902 0)
(-0.798108 -0.0627133 0)
(-0.751792 -0.148277 0)
(-0.668285 -0.227644 0)
(-0.564657 -0.279708 0)
(-0.432574 -0.307877 0)
(-0.304958 -0.288829 0)
(-0.175485 -0.248877 0)
(-0.0816163 -0.162268 0)
(-0.0164785 -0.0935049 0)
(0.0139191 -0.00494958 0)
(-5.15286e-266 0.00520246 0)
(-0.0792788 0.193819 0)
(-0.171278 0.317332 0)
(-0.294437 0.371068 0)
(-0.426636 0.393403 0)
(-0.561066 0.381735 0)
(-0.689696 0.350425 0)
(-0.802282 0.297676 0)
(-0.894951 0.226846 0)
(-0.956619 0.137788 0)
(-0.985973 0.0293084 0)
(-0.975257 -0.0937656 0)
(-0.930071 -0.216124 0)
(-0.837011 -0.329613 0)
(-0.715889 -0.409566 0)
(-0.554349 -0.454591 0)
(-0.394552 -0.434206 0)
(-0.226215 -0.379145 0)
(-0.104987 -0.253268 0)
(-0.0158282 -0.153217 0)
(0.0160659 -0.00205516 0)
(-0.0208098 0.0838685 0)
(-0.109859 0.287547 0)
(-0.215677 0.424254 0)
(-0.350677 0.503628 0)
(-0.499282 0.53297 0)
(-0.64978 0.521811 0)
(-0.796483 0.480084 0)
(-0.927236 0.4092 0)
(-1.03921 0.313005 0)
(-1.11993 0.190419 0)
(-1.16781 0.0451202 0)
(-1.1708 -0.118905 0)
(-1.13261 -0.285536 0)
(-1.03507 -0.442665 0)
(-0.899476 -0.56089 0)
(-0.706202 -0.630898 0)
(-0.510813 -0.614698 0)
(-0.290637 -0.540701 0)
(-0.139722 -0.36951 0)
(-0.00328953 -0.216314 0)
(5.77359e-266 -0.00401648 0)
(-0.0151744 0.138206 0)
(-0.10441 0.389799 0)
(-0.235851 0.558768 0)
(-0.389632 0.65548 0)
(-0.556743 0.692836 0)
(-0.725347 0.679295 0)
(-0.889952 0.628258 0)
(-1.04127 0.540331 0)
(-1.17497 0.419962 0)
(-1.28008 0.265863 0)
(-1.35281 0.0805728 0)
(-1.3771 -0.130009 0)
(-1.35431 -0.35137 0)
(-1.26002 -0.564845 0)
(-1.11525 -0.73771 0)
(-0.892227 -0.847117 0)
(-0.656557 -0.848088 0)
(-0.378443 -0.756225 0)
(-0.183027 -0.536103 0)
(-0.00275697 -0.302154 0)
(2.35992e-24 -1.21564e-24 0)
(-0.0134144 0.20016 0)
(-0.108325 0.506471 0)
(-0.256447 0.708038 0)
(-0.425518 0.822826 0)
(-0.609707 0.867545 0)
(-0.794778 0.853578 0)
(-0.977493 0.79524 0)
(-1.1494 0.69318 0)
(-1.30656 0.551638 0)
(-1.43859 0.367658 0)
(-1.53997 0.142701 0)
(-1.59231 -0.117921 0)
(-1.59328 -0.40125 0)
(-1.51225 -0.682939 0)
(-1.3676 -0.926527 0)
(-1.12052 -1.09248 0)
(-0.845349 -1.12487 0)
(-0.500052 -1.01907 0)
(-0.248855 -0.737883 0)
(-0.00445199 -0.406576 0)
(9.69585e-77 -5.8998e-25 0)
(-0.0118341 0.260612 0)
(-0.108212 0.634513 0)
(-0.268018 0.876794 0)
(-0.448508 1.0094 0)
(-0.645738 1.06264 0)
(-0.844069 1.04713 0)
(-1.04114 0.983206 0)
(-1.23107 0.86903 0)
(-1.40941 0.709349 0)
(-1.56823 0.498562 0)
(-1.69992 0.23454 0)
(-1.78545 -0.0778996 0)
(-1.81849 -0.430895 0)
(-1.76275 -0.793106 0)
(-1.63132 -1.12868 0)
(-1.37278 -1.37501 0)
(-1.06367 -1.46702 0)
(-0.648484 -1.36242 0)
(-0.329279 -1.02629 0)
(-0.0061081 -0.565447 0)
(2.70997e-164 -2.42396e-77 0)
(-0.0123016 0.316967 0)
(-0.112909 0.760963 0)
(-0.282741 1.04618 0)
(-0.471585 1.1984 0)
(-0.67671 1.26154 0)
(-0.882387 1.24706 0)
(-1.08656 1.18123 0)
(-1.28723 1.06003 0)
(-1.47908 0.88839 0)
(-1.65877 0.657295 0)
(-1.81644 0.360416 0)
(-1.93609 0.000170645 0)
(-2.00652 -0.422139 0)
(-1.98932 -0.871084 0)
(-1.88891 -1.31333 0)
(-1.64108 -1.66373 0)
(-1.31685 -1.84436 0)
(-0.843226 -1.76111 0)
(-0.452224 -1.36907 0)
(-0.0736152 -0.748092 0)
(1.70446e-265 0.0126439 0)
(-0.013467 0.386799 0)
(-0.115171 0.907126 0)
(-0.289639 1.23703 0)
(-0.479943 1.40412 0)
(-0.684198 1.47466 0)
(-0.887575 1.45697 0)
(-1.08743 1.38869 0)
(-1.28676 1.26105 0)
(-1.47896 1.08096 0)
(-1.66715 0.835093 0)
(-1.84 0.511745 0)
(-1.98755 0.110998 0)
(-2.09546 -0.377385 0)
(-2.12658 -0.913094 0)
(-2.07611 -1.47613 0)
(-1.86725 -1.95359 0)
(-1.55409 -2.26396 0)
(-1.03702 -2.24081 0)
(-0.556698 -1.79031 0)
(-0.0723718 -1.03662 0)
(0.0505757 -0.0694302 0)
(-0.0174592 0.441276 0)
(-0.125086 1.03421 0)
(-0.307164 1.40807 0)
(-0.496143 1.58967 0)
(-0.690197 1.66736 0)
(-0.879313 1.6477 0)
(-1.05768 1.5794 0)
(-1.23771 1.44992 0)
(-1.40899 1.26837 0)
(-1.58579 1.01763 0)
(-1.75344 0.681295 0)
(-1.91511 0.255821 0)
(-2.05126 -0.280817 0)
(-2.13664 -0.8899 0)
(-2.15271 -1.56776 0)
(-2.01765 -2.18771 0)
(-1.76207 -2.66842 0)
(-1.22442 -2.76707 0)
(-0.696279 -2.32719 0)
(0.038198 -1.36203 0)
(2.33589e-231 -0.0126439 0)
(-0.0227603 0.532245 0)
(-0.133767 1.19989 0)
(-0.316748 1.61192 0)
(-0.49468 1.78823 0)
(-0.665231 1.86092 0)
(-0.824605 1.82473 0)
(-0.963083 1.74894 0)
(-1.10304 1.61227 0)
(-1.22997 1.42959 0)
(-1.37001 1.17929 0)
(-1.50649 0.840691 0)
(-1.65768 0.408512 0)
(-1.80353 -0.156318 0)
(-1.93546 -0.8124 0)
(-2.02937 -1.59469 0)
(-2.00723 -2.34876 0)
(-1.87161 -3.05658 0)
(-1.41736 -3.32461 0)
(-0.887173 -3.04736 0)
(-0.00356275 -1.76907 0)
(5.68478e-202 4.52291e-184 0)
(-0.0393526 0.590728 0)
(-0.170479 1.32212 0)
(-0.363523 1.7651 0)
(-0.528092 1.93263 0)
(-0.656942 1.99564 0)
(-0.767331 1.94208 0)
(-0.837729 1.8575 0)
(-0.911387 1.71547 0)
(-0.962831 1.53568 0)
(-1.03741 1.29468 0)
(-1.10983 0.970047 0)
(-1.22337 0.555117 0)
(-1.34767 -0.000112498 0)
(-1.51434 -0.660289 0)
(-1.67387 -1.48836 0)
(-1.80547 -2.34249 0)
(-1.83204 -3.24266 0)
(-1.57993 -3.76051 0)
(-1.12162 -3.7183 0)
(-0.0108672 -2.27881 0)
(1.80916e-183 -8.08117e-186 0)
(-0.0583583 0.749996 0)
(-0.208324 1.52837 0)
(-0.398073 1.97889 0)
(-0.532955 2.08299 0)
(-0.600786 2.10725 0)
(-0.641602 2.00619 0)
(-0.623224 1.89719 0)
(-0.607994 1.73808 0)
(-0.560926 1.5573 0)
(-0.543393 1.32749 0)
(-0.52359 1.02639 0)
(-0.564323 0.648476 0)
(-0.632232 0.132745 0)
(-0.79003 -0.482957 0)
(-0.990693 -1.30682 0)
(-1.25795 -2.18719 0)
(-1.5093 -3.28728 0)
(-1.57766 -4.04224 0)
(-1.42996 -4.63429 0)
(-0.460557 -2.9375 0)
(4.3705e-254 -4.52291e-184 0)
(-0.123937 0.843323 0)
(-0.341335 1.64868 0)
(-0.524079 2.08445 0)
(-0.612521 2.1256 0)
(-0.565488 2.10348 0)
(-0.498178 1.95957 0)
(-0.343705 1.82483 0)
(-0.206989 1.65215 0)
(-0.0289141 1.47257 0)
(0.103532 1.25966 0)
(0.240739 0.993035 0)
(0.29066 0.669558 0)
(0.311094 0.229132 0)
(0.177837 -0.292518 0)
(-0.00918538 -1.01242 0)
(-0.437666 -1.81271 0)
(-0.855549 -2.89688 0)
(-1.54897 -3.83897 0)
(-1.69424 -4.74662 0)
(-2.06266 -3.78508 0)
(-2.54834e-264 -0.213637 0)
(-0.179181 1.23657 0)
(-0.432013 1.9328 0)
(-0.544114 2.27233 0)
(-0.528157 2.12467 0)
(-0.324596 2.00675 0)
(-0.111564 1.78411 0)
(0.199053 1.61264 0)
(0.475032 1.42345 0)
(0.790695 1.24888 0)
(1.04551 1.05958 0)
(1.30195 0.83861 0)
(1.45552 0.582974 0)
(1.5754 0.2421 0)
(1.51846 -0.153206 0)
(1.38957 -0.701962 0)
(0.969393 -1.32419 0)
(0.4591 -2.20648 0)
(-0.438784 -3.15952 0)
(-1.13569 -4.2093 0)
(-1.85139 -4.48564 0)
(-0.854549 -2.30195 0)
(-0.399791 1.42007 0)
(-0.729235 1.9849 0)
(-0.536785 2.17475 0)
(-0.27682 1.88929 0)
(0.253093 1.68798 0)
(0.688733 1.42818 0)
(1.21525 1.24033 0)
(1.64666 1.05857 0)
(2.1008 0.903989 0)
(2.4604 0.751257 0)
(2.81201 0.585215 0)
(3.03719 0.404626 0)
(3.23143 0.169493 0)
(3.22058 -0.0910294 0)
(3.16069 -0.459553 0)
(2.75389 -0.859855 0)
(2.29978 -1.48864 0)
(1.29755 -2.21371 0)
(0.413175 -3.33765 0)
(-0.72561 -3.98899 0)
(-0.698438 -2.96087 0)
(-0.255395 2.42744 0)
(-0.0979471 2.06446 0)
(0.687457 1.87053 0)
(1.32578 1.32715 0)
(2.12665 1.06178 0)
(2.73485 0.815443 0)
(3.36814 0.661108 0)
(3.8616 0.533887 0)
(4.34526 0.435659 0)
(4.71609 0.348014 0)
(5.06575 0.26005 0)
(5.2876 0.168673 0)
(5.47878 0.0552092 0)
(5.47954 -0.0697149 0)
(5.44476 -0.245069 0)
(5.0967 -0.44148 0)
(4.72218 -0.780841 0)
(3.80303 -1.2402 0)
(2.84866 -2.2532 0)
(1.08418 -3.3282 0)
(-0.0446587 -3.80011 0)
(1.66867 1.67096 0)
(2.70914 0.97625 0)
(4.5526 0.74928 0)
(5.39024 0.42345 0)
(6.25209 0.284901 0)
(6.75363 0.175837 0)
(7.223 0.118943 0)
(7.53655 0.0789892 0)
(7.82634 0.0534011 0)
(8.02394 0.03392 0)
(8.2049 0.0167274 0)
(8.29754 0.000414271 0)
(8.37676 -0.0201083 0)
(8.32857 -0.040898 0)
(8.27736 -0.0767427 0)
(7.99959 -0.110691 0)
(7.74981 -0.201076 0)
(6.99893 -0.294601 0)
(6.26514 -0.627227 0)
(4.04733 -0.999276 0)
(2.00755 -1.8204 0)
)
;

boundaryField
{
    movingWall
    {
        type            fixedValue;
        value           uniform (10 0 0);
    }
    fixedWalls
    {
        type            noSlip;
    }
    frontAndBack
    {
        type            empty;
    }
}


// ************************************************************************* //
