/*--------------------------------*- C++ -*----------------------------------*\
| =========                 |                                                 |
| \\      /  F ield         | OpenFOAM: The Open Source CFD Toolbox           |
|  \\    /   O peration     | Version:  4.1                                   |
|   \\  /    A nd           | Web:      www.OpenFOAM.org                      |
|    \\/     M anipulation  |                                                 |
\*---------------------------------------------------------------------------*/
FoamFile
{
    version     2.0;
    format      ascii;
    class       volScalarField;
    location    "0.0034";
    object      p;
}
// * * * * * * * * * * * * * * * * * * * * * * * * * * * * * * * * * * * * * //

dimensions      [1 -1 -2 0 0 0 0];

internalField   nonuniform List<scalar> 
441
(
100000
99999.9
99999.7
100000
100000
99999.6
100000
100000
100000
100001
100001
100001
100001
100001
100001
100001
100001
100001
100001
100001
100001
100000
100000
100000
100000
100000
100000
100000
100000
100000
100000
100000
100000
100000
100000
100000
100001
100000
100001
100000
100001
100000
100000
99999.9
100000
99999.9
100000
99999.9
100000
100000
100000
100001
100001
100001
100001
100001
100001
100001
100001
100001
100001
100001
100001
100000
100000
100000
100000
100000
100000
100000
100000
100000
100000
100000
100000
100001
100001
100001
100001
100001
100001
100001
100001
100001
100000
99999.6
99999.8
99999.7
99999.8
99999.8
99999.9
100000
100000
100000
100000
100001
100001
100001
100001
100001
100001
100001
100001
100001
100001
99998.8
99999.5
99999.3
99999.5
99999.6
99999.7
99999.8
100000
100000
100000
100000
100001
100001
100001
100001
100001
100001
100001
100001
100001
100001
99998.4
99998.8
99998.9
99999
99999.2
99999.3
99999.5
99999.7
99999.9
100000
100000
100001
100001
100001
100001
100001
100001
100002
100001
100002
100001
99998.5
99998.6
99998.5
99998.8
99998.8
99999.1
99999.3
99999.6
99999.8
100000
100000
100001
100001
100001
100001
100002
100002
100002
100002
100002
100001
99997.7
99997.7
99997.8
99998
99998.2
99998.5
99998.8
99999.2
99999.6
100000
100000
100001
100001
100002
100002
100002
100002
100003
100002
100003
100002
99997.2
99997.2
99997.3
99997.6
99997.7
99998.1
99998.4
99998.9
99999.3
99999.8
100000
100001
100001
100002
100002
100003
100003
100003
100003
100003
100002
99996
99996
99996.2
99996.5
99996.8
99997.3
99997.7
99998.3
99998.9
99999.6
100000
100001
100002
100002
100003
100003
100004
100004
100004
100005
100005
99995.4
99995.4
99995.5
99995.9
99996.1
99996.7
99997.2
99997.9
99998.6
99999.4
100000
100001
100002
100003
100003
100004
100004
100005
100005
100005
100005
99993.5
99993.6
99993.7
99994.3
99994.6
99995.5
99996.1
99997.1
99998
99999.1
100000
100001
100002
100003
100005
100005
100006
100006
100006
100007
100005
99992.7
99992.9
99992.9
99993.5
99993.8
99994.8
99995.4
99996.6
99997.6
99998.8
100000
100001
100003
100004
100005
100006
100007
100007
100008
100008
100007
99989.7
99990.1
99990.1
99991.3
99991.7
99993.1
99994
99995.5
99996.8
99998.3
99999.9
100001
100003
100004
100007
100007
100010
100010
100011
100011
100008
99989
99989.4
99989.2
99990.5
99990.7
99992.3
99993.2
99994.9
99996.2
99997.9
99999.6
100001
100003
100004
100007
100008
100010
100010
100012
100012
100008
99983.5
99985.1
99984.7
99987.3
99987.7
99990.3
99991.4
99993.7
99995.4
99997.3
99999.4
100001
100004
100005
100009
100010
100014
100014
100021
100016
100031
99983.2
99984.8
99983.8
99986.5
99986.7
99989.4
99990.6
99993
99994.8
99996.9
99999
100001
100003
100005
100008
100009
100014
100014
100021
100020
100029
99970.5
99977.8
99976.4
99982.3
99983
99987.2
99988.9
99992
99994
99996.4
99998.8
100001
100004
100005
100010
100011
100017
100018
100029
100029
100043
99970.4
99978.4
99976.2
99981.7
99982.4
99986.6
99988.4
99991.5
99993.7
99996.1
99998.5
100000
100003
100005
100009
100009
100016
100016
100027
100028
100045
99927.4
99969.8
99968.4
99980
99980.7
99986.2
99988
99991.4
99993.6
99996.1
99998.6
100000
100004
100005
100010
100010
100019
100020
100039
100046
100100
)
;

boundaryField
{
    movingWall
    {
        type            zeroGradient;
    }
    fixedWalls
    {
        type            zeroGradient;
    }
    frontAndBack
    {
        type            empty;
    }
}


// ************************************************************************* //
