/*--------------------------------*- C++ -*----------------------------------*\
| =========                 |                                                 |
| \\      /  F ield         | OpenFOAM: The Open Source CFD Toolbox           |
|  \\    /   O peration     | Version:  4.1                                   |
|   \\  /    A nd           | Web:      www.OpenFOAM.org                      |
|    \\/     M anipulation  |                                                 |
\*---------------------------------------------------------------------------*/
FoamFile
{
    version     2.0;
    format      ascii;
    class       volVectorField;
    location    "0.056";
    object      U;
}
// * * * * * * * * * * * * * * * * * * * * * * * * * * * * * * * * * * * * * //

dimensions      [0 1 -1 0 0 0 0];

internalField   nonuniform List<vector> 
441
(
(0.00343343 -0.0046166 0)
(0.00881988 -0.00255825 0)
(-0.000639572 -2.17937e-165 0)
(0.00177047 -2.92298e-266 0)
(-0.0086339 -0.00708246 0)
(-0.00177047 -2.79984e-232 0)
(-1.09415e-202 -4.85302e-203 0)
(-1.21309e-203 -6.27362e-228 0)
(-1.55016e-212 -2.69562e-213 0)
(-0.00551111 8.24478e-266 0)
(-0.0668551 0.0220467 0)
(-0.084514 0.0116926 0)
(-0.0960627 0.00551091 0)
(-0.0858703 0.000642631 0)
(-0.0724455 -0.0012106 0)
(-0.0504163 -0.0025634 0)
(-0.0310034 -0.00194803 0)
(-0.0127529 -0.00166386 0)
(-0.000708119 0.000345727 0)
(0.00257168 0.00102389 0)
(0.00410067 0.00261519 0)
(0.00336811 -0.00744276 0)
(-0.00186537 0.00658809 0)
(-0.0270022 0.00789651 0)
(-0.0564591 0.0105575 0)
(-0.0997165 0.00982638 0)
(-0.139447 -0.00384665 0)
(-0.176241 -0.000320179 0)
(-0.211011 0.00140103 0)
(-0.241586 0.0116863 0)
(-0.272572 0.0593937 0)
(-0.294016 0.055042 0)
(-0.289339 0.0178644 0)
(-0.27787 -0.00463888 0)
(-0.242703 -0.0249699 0)
(-0.201294 -0.0343356 0)
(-0.14752 -0.0400873 0)
(-0.0979922 -0.0355022 0)
(-0.052168 -0.0298531 0)
(-0.0195744 -0.0151807 0)
(-0.00376609 -0.00657446 0)
(0.00431365 0.00427556 0)
(0.00680535 -0.00665133 0)
(-0.00552544 0.0274266 0)
(-0.0512584 0.0532247 0)
(-0.111805 0.0704223 0)
(-0.184506 0.0748304 0)
(-0.259083 0.0727262 0)
(-0.338013 0.0690401 0)
(-0.400656 0.0631917 0)
(-0.462167 0.059197 0)
(-0.491309 0.0565997 0)
(-0.486975 0.0396948 0)
(-0.471604 -0.00332976 0)
(-0.441295 -0.0404662 0)
(-0.386709 -0.0757722 0)
(-0.321416 -0.0954601 0)
(-0.240551 -0.10615 0)
(-0.164473 -0.0961532 0)
(-0.0926642 -0.0805818 0)
(-0.0403174 -0.0469758 0)
(-0.0101566 -0.0232874 0)
(0.00568717 0.0035977 0)
(0.00600298 -0.00897674 0)
(-0.0143734 0.0662976 0)
(-0.0879977 0.114214 0)
(-0.173528 0.146017 0)
(-0.273226 0.157453 0)
(-0.372392 0.152226 0)
(-0.468925 0.142768 0)
(-0.551321 0.126354 0)
(-0.618707 0.104491 0)
(-0.657949 0.0816826 0)
(-0.665662 0.0350942 0)
(-0.64566 -0.0288863 0)
(-0.604407 -0.0896544 0)
(-0.532007 -0.145961 0)
(-0.444875 -0.180293 0)
(-0.337102 -0.198481 0)
(-0.23432 -0.182824 0)
(-0.135011 -0.155629 0)
(-0.0618201 -0.0968422 0)
(-0.0160363 -0.0539443 0)
(0.00747957 0.000179367 0)
(6.39493e-165 0.00150075 0)
(-0.0213509 0.120998 0)
(-0.125875 0.211628 0)
(-0.231511 0.25432 0)
(-0.356358 0.272695 0)
(-0.476491 0.266741 0)
(-0.595094 0.246812 0)
(-0.694495 0.211998 0)
(-0.776887 0.165211 0)
(-0.825314 0.104211 0)
(-0.840286 0.0278259 0)
(-0.821761 -0.0643477 0)
(-0.774037 -0.153358 0)
(-0.687758 -0.23563 0)
(-0.580445 -0.289281 0)
(-0.444011 -0.317537 0)
(-0.312259 -0.296772 0)
(-0.179214 -0.254153 0)
(-0.0830213 -0.164272 0)
(-0.0167597 -0.0934271 0)
(0.01405 -0.00414776 0)
(-5.20413e-266 0.00527677 0)
(-0.0806487 0.196631 0)
(-0.174789 0.322555 0)
(-0.300801 0.378258 0)
(-0.436435 0.402356 0)
(-0.574698 0.392007 0)
(-0.707437 0.361381 0)
(-0.824056 0.308396 0)
(-0.920378 0.236121 0)
(-0.984832 0.144328 0)
(-1.01579 0.0318223 0)
(-1.00519 -0.0961203 0)
(-0.958583 -0.223399 0)
(-0.862428 -0.341093 0)
(-0.737027 -0.423557 0)
(-0.570202 -0.469021 0)
(-0.405191 -0.44656 0)
(-0.232063 -0.38791 0)
(-0.107562 -0.257375 0)
(-0.0166347 -0.154179 0)
(0.0160873 -0.00131666 0)
(-0.0211071 0.0852576 0)
(-0.111925 0.292401 0)
(-0.220322 0.432178 0)
(-0.358669 0.514264 0)
(-0.511267 0.545883 0)
(-0.666171 0.536413 0)
(-0.817575 0.495468 0)
(-0.952929 0.424099 0)
(-1.06911 0.32581 0)
(-1.15311 0.199391 0)
(-1.20304 0.0486712 0)
(-1.20644 -0.121851 0)
(-1.16696 -0.295123 0)
(-1.06619 -0.458053 0)
(-0.925931 -0.580029 0)
(-0.726595 -0.651106 0)
(-0.524978 -0.63264 0)
(-0.298642 -0.55409 0)
(-0.143364 -0.376529 0)
(-0.00402405 -0.218857 0)
(5.81004e-266 -0.00402182 0)
(-0.0154327 0.14066 0)
(-0.106609 0.396967 0)
(-0.241104 0.569904 0)
(-0.398632 0.670003 0)
(-0.570125 0.710169 0)
(-0.743517 0.698658 0)
(-0.913181 0.648499 0)
(-1.06946 0.559841 0)
(-1.20772 0.436724 0)
(-1.31648 0.277721 0)
(-1.39162 0.085548 0)
(-1.41664 -0.133258 0)
(-1.39285 -0.363153 0)
(-1.29548 -0.584252 0)
(-1.14604 -0.76244 0)
(-0.916574 -0.873913 0)
(-0.67401 -0.872836 0)
(-0.388462 -0.7756 0)
(-0.18763 -0.547452 0)
(-0.00291954 -0.306833 0)
(2.40459e-24 -1.18579e-24 0)
(-0.0136696 0.203953 0)
(-0.110574 0.516304 0)
(-0.261856 0.722729 0)
(-0.434745 0.84156 0)
(-0.623372 0.88959 0)
(-0.813254 0.877988 0)
(-1.00103 0.82061 0)
(-1.17789 0.717567 0)
(-1.33961 0.572626 0)
(-1.47534 0.382672 0)
(-1.57925 0.149398 0)
(-1.63256 -0.121158 0)
(-1.63291 -0.414904 0)
(-1.5493 -0.706098 0)
(-1.40053 -0.956776 0)
(-1.14736 -1.12612 0)
(-0.865337 -1.15713 0)
(-0.511999 -1.04543 0)
(-0.254575 -0.75466 0)
(-0.0045529 -0.413872 0)
(9.86544e-77 -6.01148e-25 0)
(-0.0120436 0.265551 0)
(-0.110191 0.646839 0)
(-0.272884 0.894887 0)
(-0.456862 1.03216 0)
(-0.658141 1.08919 0)
(-0.860835 1.07634 0)
(-1.06246 1.01344 0)
(-1.25681 0.898028 0)
(-1.43918 0.734344 0)
(-1.60124 0.516631 0)
(-1.73522 0.243031 0)
(-1.82176 -0.0808098 0)
(-1.8546 -0.445846 0)
(-1.79711 -0.81923 0)
(-1.66273 -1.16361 0)
(-1.39934 -1.41485 0)
(-1.08442 -1.50667 0)
(-0.66153 -1.39623 0)
(-0.335915 -1.04943 0)
(-0.00629061 -0.57606 0)
(2.75527e-164 -2.46636e-77 0)
(-0.0124479 0.32291 0)
(-0.114342 0.775441 0)
(-0.286355 1.06721 0)
(-0.477881 1.22464 0)
(-0.686137 1.29196 0)
(-0.895163 1.28036 0)
(-1.10278 1.21553 0)
(-1.30669 1.09283 0)
(-1.50141 0.916639 0)
(-1.68335 0.677835 0)
(-1.84259 0.370422 0)
(-1.963 -0.00225356 0)
(-2.03358 -0.437698 0)
(-2.0157 -0.898947 0)
(-1.91405 -1.35134 0)
(-1.66356 -1.70809 0)
(-1.33573 -1.89011 0)
(-0.856174 -1.80175 0)
(-0.459478 -1.39859 0)
(-0.0749594 -0.762254 0)
(1.72336e-265 0.0127836 0)
(-0.0135113 0.393299 0)
(-0.115733 0.922918 0)
(-0.291245 1.25997 0)
(-0.482949 1.43267 0)
(-0.68889 1.50767 0)
(-0.894045 1.49294 0)
(-1.09564 1.42559 0)
(-1.29645 1.29616 0)
(-1.48981 1.11108 0)
(-1.67875 0.856988 0)
(-1.85205 0.522603 0)
(-1.99983 0.109033 0)
(-2.1081 -0.392801 0)
(-2.13964 -0.941116 0)
(-2.0899 -1.51488 0)
(-1.88116 -1.99973 0)
(-1.5675 -2.31308 0)
(-1.0474 -2.28641 0)
(-0.563036 -1.82498 0)
(-0.0731404 -1.0547 0)
(0.0511344 -0.07073 0)
(-0.0173771 0.447813 0)
(-0.124544 1.05025 0)
(-0.306203 1.43154 0)
(-0.494921 1.61899 0)
(-0.688795 1.70124 0)
(-0.877682 1.6845 0)
(-1.05566 1.61693 0)
(-1.23504 1.48538 0)
(-1.40544 1.29854 0)
(-1.58124 1.0394 0)
(-1.74803 0.692038 0)
(-1.90925 0.254041 0)
(-2.04579 -0.295513 0)
(-2.13251 -0.916558 0)
(-2.15117 -1.6048 0)
(-2.01908 -2.23241 0)
(-1.76664 -2.7176 0)
(-1.22968 -2.81488 0)
(-0.700771 -2.36635 0)
(0.0390188 -1.38321 0)
(2.36056e-231 -0.0127836 0)
(-0.022536 0.538129 0)
(-0.132005 1.2148 0)
(-0.312944 1.63419 0)
(-0.488762 1.81635 0)
(-0.657064 1.89353 0)
(-0.814031 1.8601 0)
(-0.949874 1.78482 0)
(-1.08703 1.6459 0)
(-1.21114 1.45789 0)
(-1.34859 1.19939 0)
(-1.48307 0.850313 0)
(-1.63322 0.406565 0)
(-1.77942 -0.169894 0)
(-1.91335 -0.836408 0)
(-2.01117 -1.62774 0)
(-1.99441 -2.38871 0)
(-1.86516 -3.10167 0)
(-1.41608 -3.37035 0)
(-0.889026 -3.08793 0)
(-0.0034714 -1.79199 0)
(5.71519e-202 4.53744e-184 0)
(-0.0390065 0.595305 0)
(-0.167635 1.33458 0)
(-0.357136 1.78444 0)
(-0.517843 1.95761 0)
(-0.642485 2.0249 0)
(-0.748456 1.97388 0)
(-0.814236 1.88965 0)
(-0.883305 1.74536 0)
(-0.930438 1.56052 0)
(-1.00137 1.31194 0)
(-1.07116 0.977843 0)
(-1.18345 0.552744 0)
(-1.30816 -0.012355 0)
(-1.47719 -0.680938 0)
(-1.64122 -1.51598 0)
(-1.77944 -2.37534 0)
(-1.81437 -3.28008 0)
(-1.57085 -3.79993 0)
(-1.11968 -3.75607 0)
(-0.0109961 -2.30202 0)
(1.81498e-183 -3.18955e-185 0)
(-0.0579446 0.752732 0)
(-0.204812 1.53724 0)
(-0.389987 1.99379 0)
(-0.519727 2.10307 0)
(-0.58189 2.13128 0)
(-0.616826 2.03256 0)
(-0.592463 1.92391 0)
(-0.571538 1.76286 0)
(-0.519377 1.57771 0)
(-0.497826 1.34139 0)
(-0.475372 1.03221 0)
(-0.515122 0.645786 0)
(-0.583773 0.122032 0)
(-0.744177 -0.500027 0)
(-0.949298 -1.32869 0)
(-1.22319 -2.21208 0)
(-1.48314 -3.31527 0)
(-1.56191 -4.07214 0)
(-1.42385 -4.66543 0)
(-0.461681 -2.9586 0)
(4.37831e-254 -4.53744e-184 0)
(-0.123567 0.844034 0)
(-0.337943 1.65348 0)
(-0.515918 2.09414 0)
(-0.598813 2.1398 0)
(-0.545526 2.12123 0)
(-0.471746 1.97953 0)
(-0.310747 1.84532 0)
(-0.16797 1.67128 0)
(0.0153606 1.48834 0)
(0.151728 1.27031 0)
(0.291273 0.99727 0)
(0.341678 0.667023 0)
(0.360898 0.220312 0)
(0.224707 -0.306051 0)
(0.0334957 -1.02892 0)
(-0.400975 -1.83033 0)
(-0.826062 -2.91525 0)
(-1.52975 -3.85828 0)
(-1.68458 -4.76707 0)
(-2.06497 -3.80221 0)
(-2.55691e-264 -0.214111 0)
(-0.179017 1.23561 0)
(-0.429779 1.9339 0)
(-0.538033 2.27695 0)
(-0.517254 2.13294 0)
(-0.307962 2.01806 0)
(-0.0888592 1.79746 0)
(0.227987 1.62675 0)
(0.509778 1.43689 0)
(0.830481 1.26011 0)
(1.08901 1.06724 0)
(1.34755 0.841662 0)
(1.50134 0.581075 0)
(1.61971 0.235588 0)
(1.55968 -0.163127 0)
(1.42671 -0.713691 0)
(1.0015 -1.33595 0)
(0.485694 -2.21722 0)
(-0.419401 -3.1696 0)
(-1.12423 -4.21924 0)
(-1.84944 -4.49621 0)
(-0.856443 -2.30512 0)
(-0.399932 1.41843 0)
(-0.728923 1.9838 0)
(-0.534518 2.17578 0)
(-0.271457 1.8929 0)
(0.262694 1.6939 0)
(0.703197 1.43577 0)
(1.23501 1.24874 0)
(1.67159 1.06681 0)
(2.13038 0.911011 0)
(2.49352 0.75612 0)
(2.84726 0.587189 0)
(3.07277 0.403438 0)
(3.26566 0.165327 0)
(3.25186 -0.0973887 0)
(3.1881 -0.466987 0)
(2.77679 -0.867033 0)
(2.31841 -1.49451 0)
(1.3116 -2.21812 0)
(0.422694 -3.34108 0)
(-0.721646 -3.99259 0)
(-0.698983 -2.96161 0)
(-0.255707 2.42632 0)
(-0.0991062 2.06315 0)
(0.686313 1.87005 0)
(1.32579 1.32798 0)
(2.12902 1.06388 0)
(2.74046 0.818501 0)
(3.37764 0.664666 0)
(3.87513 0.537435 0)
(4.36256 0.438663 0)
(4.73636 0.35001 0)
(5.08785 0.260695 0)
(5.31004 0.167851 0)
(5.5001 0.0530557 0)
(5.49837 -0.0727913 0)
(5.46029 -0.24845 0)
(5.10853 -0.444528 0)
(4.73075 -0.782914 0)
(3.80885 -1.24129 0)
(2.85247 -2.25338 0)
(1.08591 -3.32867 0)
(-0.0449674 -3.79988 0)
(1.66844 1.67074 0)
(2.70807 0.975963 0)
(4.55085 0.749085 0)
(5.38849 0.423459 0)
(6.25113 0.285115 0)
(6.75411 0.1762 0)
(7.22537 0.119367 0)
(7.54094 0.0793837 0)
(7.8326 0.053675 0)
(8.03157 0.0340091 0)
(8.21324 0.0165924 0)
(8.30571 7.00293e-05 0)
(8.38397 -0.0206104 0)
(8.33413 -0.0414492 0)
(8.28101 -0.0772273 0)
(8.0013 -0.110988 0)
(7.75015 -0.201108 0)
(6.99848 -0.29439 0)
(6.26464 -0.626818 0)
(4.04703 -0.998868 0)
(2.00708 -1.81987 0)
)
;

boundaryField
{
    movingWall
    {
        type            fixedValue;
        value           uniform (10 0 0);
    }
    fixedWalls
    {
        type            noSlip;
    }
    frontAndBack
    {
        type            empty;
    }
}


// ************************************************************************* //
