/*--------------------------------*- C++ -*----------------------------------*\
| =========                 |                                                 |
| \\      /  F ield         | OpenFOAM: The Open Source CFD Toolbox           |
|  \\    /   O peration     | Version:  4.1                                   |
|   \\  /    A nd           | Web:      www.OpenFOAM.org                      |
|    \\/     M anipulation  |                                                 |
\*---------------------------------------------------------------------------*/
FoamFile
{
    version     2.0;
    format      ascii;
    class       volVectorField;
    location    "0.014";
    object      U;
}
// * * * * * * * * * * * * * * * * * * * * * * * * * * * * * * * * * * * * * //

dimensions      [0 1 -1 0 0 0 0];

internalField   nonuniform List<vector> 
100
(
(-0.0010548 0.00110461 0)
(-0.00302822 0.000987624 0)
(-0.00492119 0.000832633 0)
(-0.00615792 0.000468634 0)
(-0.00684415 0.000206978 0)
(-0.00685192 -0.000201687 0)
(-0.00618653 -0.000465256 0)
(-0.00495475 -0.000835647 0)
(-0.00305674 -0.00099389 0)
(-0.00106947 -0.00111589 0)
(-0.0012982 0.00295354 0)
(-0.00377531 0.00280639 0)
(-0.00609297 0.00236643 0)
(-0.0075969 0.00134062 0)
(-0.00841008 0.000599192 0)
(-0.00841993 -0.00056613 0)
(-0.00763467 -0.00131383 0)
(-0.00613719 -0.00236565 0)
(-0.00381361 -0.00281665 0)
(-0.00131824 -0.00298806 0)
(-0.00158566 0.00634977 0)
(-0.00437364 0.00584018 0)
(-0.00702453 0.00488868 0)
(-0.00870582 0.00270934 0)
(-0.00961259 0.0012048 0)
(-0.00962667 -0.00115818 0)
(-0.00876671 -0.00267526 0)
(-0.00709592 -0.00490186 0)
(-0.00444143 -0.00587655 0)
(-0.00162611 -0.0064292 0)
(-0.00239319 0.00860883 0)
(-0.00597928 0.00787864 0)
(-0.00927784 0.0066414 0)
(-0.0113136 0.00363013 0)
(-0.012312 0.00167582 0)
(-0.012334 -0.00155599 0)
(-0.0114092 -0.00352601 0)
(-0.00939154 -0.00663124 0)
(-0.00608931 -0.00790047 0)
(-0.00245822 -0.00875082 0)
(-0.00316556 0.0153398 0)
(-0.00738556 0.0129351 0)
(-0.011315 0.0108701 0)
(-0.0136748 0.00560155 0)
(-0.0147995 0.00263231 0)
(-0.0148298 -0.00249591 0)
(-0.0138429 -0.00549713 0)
(-0.0115152 -0.0109083 0)
(-0.00761926 -0.0130484 0)
(-0.00333127 -0.0156323 0)
(-0.00605011 0.0183012 0)
(-0.0121634 0.0150874 0)
(-0.0166793 0.012734 0)
(-0.0195559 0.00643187 0)
(-0.0204095 0.00315985 0)
(-0.020463 -0.00280253 0)
(-0.0198205 -0.00608481 0)
(-0.0170095 -0.0126431 0)
(-0.0125418 -0.0150518 0)
(-0.00629611 -0.0188365 0)
(-0.00795131 0.0353162 0)
(-0.0151087 0.0238794 0)
(-0.0200378 0.0198434 0)
(-0.0232424 0.00890527 0)
(-0.0240188 0.00446289 0)
(-0.0240589 -0.00410138 0)
(-0.0236641 -0.00860312 0)
(-0.020561 -0.0198991 0)
(-0.0159861 -0.0241959 0)
(-0.00870577 -0.0363923 0)
(-0.0194315 0.039065 0)
(-0.03106 0.0250546 0)
(-0.0313681 0.0204991 0)
(-0.0344765 0.00904889 0)
(-0.032933 0.00468169 0)
(-0.0330204 -0.0037546 0)
(-0.0350924 -0.00798207 0)
(-0.0321846 -0.0198936 0)
(-0.0322228 -0.0243979 0)
(-0.0200378 -0.0412208 0)
(-0.0184069 0.0908493 0)
(-0.0280393 0.0355009 0)
(-0.0251315 0.026682 0)
(-0.0272348 0.00924152 0)
(-0.0247837 0.00479437 0)
(-0.0242951 -0.0039847 0)
(-0.0271069 -0.00844172 0)
(-0.0237016 -0.0265821 0)
(-0.0278707 -0.0364801 0)
(-0.015807 -0.0945469 0)
(0.0904452 0.0783837 0)
(0.0979006 0.0275589 0)
(0.147051 0.019635 0)
(0.150194 0.00652592 0)
(0.160097 0.00318663 0)
(0.160909 -0.00262816 0)
(0.150907 -0.00569393 0)
(0.149554 -0.0188534 0)
(0.0999898 -0.0264797 0)
(0.0922682 -0.0772143 0)
)
;

boundaryField
{
    movingWall
    {
        type            fixedValue;
        value           uniform (1 0 0);
    }
    fixedWalls
    {
        type            noSlip;
    }
    frontAndBack
    {
        type            empty;
    }
}


// ************************************************************************* //
