/*--------------------------------*- C++ -*----------------------------------*\
| =========                 |                                                 |
| \\      /  F ield         | OpenFOAM: The Open Source CFD Toolbox           |
|  \\    /   O peration     | Version:  4.1                                   |
|   \\  /    A nd           | Web:      www.OpenFOAM.org                      |
|    \\/     M anipulation  |                                                 |
\*---------------------------------------------------------------------------*/
FoamFile
{
    version     2.0;
    format      ascii;
    class       volVectorField;
    location    "0.18";
    object      U;
}
// * * * * * * * * * * * * * * * * * * * * * * * * * * * * * * * * * * * * * //

dimensions      [0 1 -1 0 0 0 0];

internalField   nonuniform List<vector> 
6400
(
(8.03328e-06 -7.99828e-06 0)
(3.03247e-05 -1.16532e-05 0)
(4.85955e-05 -8.1014e-06 0)
(5.66662e-05 1.19577e-06 0)
(5.03017e-05 1.4224e-05 0)
(2.70098e-05 2.94074e-05 0)
(-1.44381e-05 4.55987e-05 0)
(-7.4352e-05 6.19835e-05 0)
(-0.000152391 7.79904e-05 0)
(-0.00024776 9.32223e-05 0)
(-0.000359348 0.000107407 0)
(-0.000485836 0.000120363 0)
(-0.000625763 0.000131972 0)
(-0.000777585 0.000142166 0)
(-0.000939715 0.000150907 0)
(-0.00111054 0.000158188 0)
(-0.00128847 0.000164015 0)
(-0.00147192 0.000168412 0)
(-0.00165934 0.000171411 0)
(-0.00184923 0.000173053 0)
(-0.00204012 0.000173383 0)
(-0.00223062 0.000172453 0)
(-0.00241937 0.000170315 0)
(-0.00260508 0.000167026 0)
(-0.00278653 0.000162643 0)
(-0.00296256 0.000157224 0)
(-0.00313207 0.000150829 0)
(-0.00329402 0.000143519 0)
(-0.00344746 0.000135355 0)
(-0.00359147 0.000126397 0)
(-0.00372523 0.000116709 0)
(-0.00384798 0.000106351 0)
(-0.00395902 9.53878e-05 0)
(-0.00405771 8.38818e-05 0)
(-0.00414351 7.18974e-05 0)
(-0.00421593 5.94995e-05 0)
(-0.00427455 4.6754e-05 0)
(-0.00431903 3.37275e-05 0)
(-0.00434911 2.04877e-05 0)
(-0.00436457 7.10354e-06 0)
(-0.00436531 -6.35499e-06 0)
(-0.00435129 -1.98167e-05 0)
(-0.00432253 -3.32092e-05 0)
(-0.00427916 -4.6459e-05 0)
(-0.00422138 -5.94915e-05 0)
(-0.00414945 -7.2231e-05 0)
(-0.00406374 -8.46009e-05 0)
(-0.0039647 -9.6524e-05 0)
(-0.00385285 -0.000107923 0)
(-0.00372881 -0.000118719 0)
(-0.00359328 -0.000128834 0)
(-0.00344704 -0.000138192 0)
(-0.00329095 -0.000146714 0)
(-0.00312598 -0.000154326 0)
(-0.00295316 -0.000160952 0)
(-0.00277358 -0.000166522 0)
(-0.00258846 -0.000170966 0)
(-0.00239904 -0.000174217 0)
(-0.00220667 -0.000176214 0)
(-0.00201273 -0.000176899 0)
(-0.0018187 -0.000176221 0)
(-0.00162608 -0.000174135 0)
(-0.00143643 -0.000170603 0)
(-0.00125134 -0.000165599 0)
(-0.00107245 -0.000159104 0)
(-0.000901375 -0.000151118 0)
(-0.000739758 -0.000141654 0)
(-0.000589208 -0.000130748 0)
(-0.000451291 -0.000118466 0)
(-0.000327496 -0.000104907 0)
(-0.000219195 -9.02189e-05 0)
(-0.000127589 -7.46163e-05 0)
(-5.36313e-05 -5.84005e-05 0)
(2.06594e-06 -4.19952e-05 0)
(3.93729e-05 -2.59921e-05 0)
(5.88267e-05 -1.12146e-05 0)
(6.18855e-05 1.19851e-06 0)
(5.12467e-05 9.71235e-06 0)
(3.12809e-05 1.2417e-05 0)
(8.16821e-06 8.10157e-06 0)
(1.18169e-05 -3.02644e-05 0)
(4.56252e-05 -4.51433e-05 0)
(6.53955e-05 -2.70231e-05 0)
(5.68299e-05 1.37659e-05 0)
(9.87309e-06 6.90053e-05 0)
(-8.16101e-05 0.000132568 0)
(-0.000220836 0.000199989 0)
(-0.000408801 0.000268065 0)
(-0.000644856 0.000334521 0)
(-0.000927144 0.000397758 0)
(-0.00125294 0.000456666 0)
(-0.00161889 0.000510495 0)
(-0.00202124 0.000558755 0)
(-0.00245592 0.000601147 0)
(-0.0029187 0.000637515 0)
(-0.00340527 0.000667806 0)
(-0.00391129 0.000692046 0)
(-0.00443244 0.00071032 0)
(-0.00496446 0.000722756 0)
(-0.00550317 0.000729516 0)
(-0.00604454 0.000730786 0)
(-0.00658464 0.000726773 0)
(-0.00711969 0.000717696 0)
(-0.00764609 0.000703785 0)
(-0.00816036 0.000685278 0)
(-0.00865924 0.00066242 0)
(-0.00913961 0.000635459 0)
(-0.00959856 0.000604649 0)
(-0.0100333 0.000570243 0)
(-0.0104414 0.0005325 0)
(-0.0108204 0.000491679 0)
(-0.0111681 0.000448044 0)
(-0.0114826 0.000401859 0)
(-0.0117621 0.000353391 0)
(-0.012005 0.00030291 0)
(-0.01221 0.000250691 0)
(-0.0123758 0.000197012 0)
(-0.0125015 0.000142152 0)
(-0.0125863 8.63987e-05 0)
(-0.0126297 3.00416e-05 0)
(-0.0126314 -2.66241e-05 0)
(-0.0125912 -8.32984e-05 0)
(-0.0125093 -0.000139677 0)
(-0.012386 -0.000195449 0)
(-0.0122219 -0.000250303 0)
(-0.0120178 -0.000303919 0)
(-0.0117746 -0.000355976 0)
(-0.0114938 -0.000406149 0)
(-0.0111768 -0.000454114 0)
(-0.0108253 -0.000499542 0)
(-0.0104413 -0.000542107 0)
(-0.0100271 -0.000581485 0)
(-0.00958518 -0.000617353 0)
(-0.00911813 -0.000649396 0)
(-0.00862891 -0.000677304 0)
(-0.00812064 -0.000700778 0)
(-0.00759668 -0.000719529 0)
(-0.00706057 -0.000733283 0)
(-0.00651603 -0.000741784 0)
(-0.00596697 -0.000744795 0)
(-0.00541746 -0.000742104 0)
(-0.00487169 -0.000733528 0)
(-0.00433397 -0.000718916 0)
(-0.0038087 -0.000698158 0)
(-0.00330031 -0.000671194 0)
(-0.00281326 -0.000638019 0)
(-0.00235197 -0.000598703 0)
(-0.00192077 -0.000553404 0)
(-0.00152383 -0.000502396 0)
(-0.00116504 -0.0004461 0)
(-0.000847963 -0.000385134 0)
(-0.000575625 -0.000320375 0)
(-0.000350364 -0.000253051 0)
(-0.000173572 -0.000184867 0)
(-4.53779e-05 -0.000118176 0)
(3.57672e-05 -5.62171e-05 0)
(7.36277e-05 -3.41557e-06 0)
(7.48214e-05 3.42618e-05 0)
(4.97235e-05 4.89707e-05 0)
(1.26781e-05 3.11439e-05 0)
(8.46581e-06 -4.87117e-05 0)
(2.82927e-05 -6.49775e-05 0)
(2.11554e-05 -1.9398e-05 0)
(-3.13925e-05 6.84173e-05 0)
(-0.000142792 0.00018337 0)
(-0.000321499 0.000314123 0)
(-0.000572115 0.00045228 0)
(-0.000896189 0.000591689 0)
(-0.00129293 0.000727888 0)
(-0.00175976 0.000857672 0)
(-0.00229278 0.000978771 0)
(-0.00288709 0.00108961 0)
(-0.00353711 0.00118913 0)
(-0.00423675 0.00127667 0)
(-0.00497963 0.00135185 0)
(-0.00575914 0.0014145 0)
(-0.00656863 0.00146463 0)
(-0.00740142 0.00150239 0)
(-0.00825089 0.00152801 0)
(-0.00911056 0.00154178 0)
(-0.00997408 0.00154409 0)
(-0.0108353 0.00153532 0)
(-0.0116882 0.00151594 0)
(-0.0125272 0.00148641 0)
(-0.0133468 0.00144721 0)
(-0.0141417 0.00139885 0)
(-0.0149071 0.00134184 0)
(-0.0156383 0.00127672 0)
(-0.0163309 0.00120401 0)
(-0.0169809 0.00112427 0)
(-0.0175846 0.00103802 0)
(-0.0181384 0.000945835 0)
(-0.0186392 0.000848266 0)
(-0.0190841 0.000745878 0)
(-0.0194708 0.000639245 0)
(-0.0197969 0.000528947 0)
(-0.0200606 0.000415572 0)
(-0.0202604 0.000299715 0)
(-0.020395 0.000181982 0)
(-0.0204637 6.29879e-05 0)
(-0.0204659 -5.66425e-05 0)
(-0.0204014 -0.000176275 0)
(-0.0202704 -0.000295265 0)
(-0.0200735 -0.000412959 0)
(-0.0198117 -0.000528694 0)
(-0.0194862 -0.0006418 0)
(-0.0190986 -0.000751601 0)
(-0.0186511 -0.000857414 0)
(-0.018146 -0.000958553 0)
(-0.0175862 -0.00105433 0)
(-0.0169747 -0.00114407 0)
(-0.0163152 -0.00122708 0)
(-0.0156115 -0.00130271 0)
(-0.014868 -0.00137027 0)
(-0.0140892 -0.00142915 0)
(-0.0132801 -0.0014787 0)
(-0.0124459 -0.00151834 0)
(-0.0115924 -0.00154751 0)
(-0.0107253 -0.00156568 0)
(-0.00985072 -0.00157236 0)
(-0.00897513 -0.00156714 0)
(-0.00810505 -0.00154965 0)
(-0.00724719 -0.00151959 0)
(-0.0064084 -0.00147678 0)
(-0.00559554 -0.0014211 0)
(-0.0048155 -0.00135259 0)
(-0.00407504 -0.00127143 0)
(-0.00338077 -0.001178 0)
(-0.00273898 -0.0010729 0)
(-0.00215554 -0.000957047 0)
(-0.00163571 -0.000831758 0)
(-0.00118391 -0.000698854 0)
(-0.00080349 -0.000560839 0)
(-0.000496358 -0.000421121 0)
(-0.000262563 -0.000284312 0)
(-9.97708e-05 -0.000156627 0)
(-2.60904e-06 -4.63945e-05 0)
(3.80582e-05 3.53275e-05 0)
(3.61469e-05 7.40469e-05 0)
(1.02667e-05 5.1279e-05 0)
(-5.63028e-07 -5.72933e-05 0)
(-1.14302e-05 -5.71272e-05 0)
(-6.48127e-05 3.28761e-05 0)
(-0.000180841 0.000184861 0)
(-0.000374498 0.000377148 0)
(-0.000655322 0.000593154 0)
(-0.00102855 0.000820337 0)
(-0.00149593 0.0010493 0)
(-0.00205642 0.00127308 0)
(-0.00270683 0.00148657 0)
(-0.00344229 0.00168605 0)
(-0.00425667 0.00186891 0)
(-0.00514291 0.00203333 0)
(-0.00609325 0.00217811 0)
(-0.00709951 0.00230255 0)
(-0.00815317 0.00240629 0)
(-0.00924559 0.00248929 0)
(-0.0103681 0.0025517 0)
(-0.011512 0.00259384 0)
(-0.0126688 0.00261619 0)
(-0.0138301 0.00261931 0)
(-0.0149877 0.00260385 0)
(-0.0161339 0.00257053 0)
(-0.017261 0.0025201 0)
(-0.0183618 0.00245337 0)
(-0.0194293 0.00237117 0)
(-0.0204569 0.00227437 0)
(-0.0214385 0.00216384 0)
(-0.0223682 0.00204047 0)
(-0.0232406 0.00190518 0)
(-0.0240507 0.0017589 0)
(-0.0247937 0.00160255 0)
(-0.0254656 0.00143708 0)
(-0.0260625 0.00126345 0)
(-0.026581 0.00108264 0)
(-0.0270182 0.000895631 0)
(-0.0273716 0.000703418 0)
(-0.0276392 0.000507017 0)
(-0.0278193 0.000307457 0)
(-0.0279109 0.000105784 0)
(-0.0279132 -9.69435e-05 0)
(-0.0278261 -0.000299647 0)
(-0.0276499 -0.000501234 0)
(-0.0273852 -0.000700597 0)
(-0.0270334 -0.000896613 0)
(-0.0265962 -0.00108815 0)
(-0.0260759 -0.00127406 0)
(-0.0254752 -0.0014532 0)
(-0.0247973 -0.00162441 0)
(-0.0240461 -0.00178653 0)
(-0.0232256 -0.00193842 0)
(-0.0223408 -0.00207894 0)
(-0.0213968 -0.00220696 0)
(-0.0203993 -0.00232138 0)
(-0.0193544 -0.00242113 0)
(-0.0182688 -0.00250517 0)
(-0.0171495 -0.00257253 0)
(-0.0160038 -0.00262226 0)
(-0.0148397 -0.00265352 0)
(-0.0136652 -0.00266552 0)
(-0.0124886 -0.00265757 0)
(-0.0113188 -0.0026291 0)
(-0.0101644 -0.00257966 0)
(-0.00903444 -0.00250897 0)
(-0.00793791 -0.00241691 0)
(-0.00688374 -0.00230359 0)
(-0.00588071 -0.00216938 0)
(-0.00493734 -0.00201498 0)
(-0.0040617 -0.00184145 0)
(-0.00326127 -0.0016504 0)
(-0.00254271 -0.00144404 0)
(-0.00191159 -0.00122539 0)
(-0.00137209 -0.000998524 0)
(-0.000926569 -0.000768878 0)
(-0.000575168 -0.000543651 0)
(-0.000315184 -0.000332342 0)
(-0.000140428 -0.00014741 0)
(-4.0506e-05 -5.07409e-06 0)
(2.11348e-07 7.37479e-05 0)
(2.19259e-06 6.25218e-05 0)
(-1.33257e-05 -5.18473e-05 0)
(-6.56378e-05 -1.16191e-05 0)
(-0.000178112 0.000143232 0)
(-0.000371111 0.000378169 0)
(-0.000659857 0.000665739 0)
(-0.00105396 0.000984486 0)
(-0.00155857 0.00131782 0)
(-0.00217519 0.00165307 0)
(-0.00290231 0.0019806 0)
(-0.00373605 0.00229324 0)
(-0.00467067 0.00258564 0)
(-0.00569893 0.00285396 0)
(-0.0068125 0.00309545 0)
(-0.00800224 0.00330828 0)
(-0.00925839 0.0034913 0)
(-0.0105708 0.00364388 0)
(-0.0119292 0.00376584 0)
(-0.0133231 0.00385732 0)
(-0.0147421 0.00391874 0)
(-0.0161758 0.00395072 0)
(-0.0176141 0.00395404 0)
(-0.0190471 0.00392961 0)
(-0.0204653 0.00387847 0)
(-0.0218594 0.00380172 0)
(-0.0232205 0.00370052 0)
(-0.0245401 0.00357612 0)
(-0.0258102 0.00342977 0)
(-0.0270231 0.00326278 0)
(-0.0281717 0.00307648 0)
(-0.0292493 0.00287225 0)
(-0.0302497 0.00265146 0)
(-0.0311673 0.00241552 0)
(-0.0319968 0.00216585 0)
(-0.0327336 0.00190391 0)
(-0.0333736 0.00163115 0)
(-0.033913 0.00134907 0)
(-0.034349 0.00105917 0)
(-0.0346789 0.000762986 0)
(-0.0349008 0.000462069 0)
(-0.0350133 0.000157999 0)
(-0.0350156 -0.000147624 0)
(-0.0349075 -0.000453175 0)
(-0.0346894 -0.000757006 0)
(-0.0343622 -0.00105745 0)
(-0.0339274 -0.00135281 0)
(-0.0333872 -0.0016414 0)
(-0.0327445 -0.00192148 0)
(-0.0320026 -0.00219133 0)
(-0.0311654 -0.00244923 0)
(-0.0302377 -0.00269344 0)
(-0.0292247 -0.00292224 0)
(-0.0281321 -0.00313394 0)
(-0.0269664 -0.00332686 0)
(-0.0257345 -0.00349936 0)
(-0.024444 -0.00364985 0)
(-0.023103 -0.00377681 0)
(-0.0217201 -0.00387878 0)
(-0.0203042 -0.0039544 0)
(-0.0188649 -0.00400242 0)
(-0.0174121 -0.0040217 0)
(-0.015956 -0.00401127 0)
(-0.014507 -0.00397031 0)
(-0.0130758 -0.00389822 0)
(-0.0116732 -0.00379463 0)
(-0.0103101 -0.00365945 0)
(-0.00899711 -0.00349291 0)
(-0.00774483 -0.00329565 0)
(-0.00656337 -0.00306878 0)
(-0.00546234 -0.00281399 0)
(-0.0044506 -0.00253368 0)
(-0.00353601 -0.00223116 0)
(-0.00272516 -0.00191086 0)
(-0.00202303 -0.00157863 0)
(-0.00143255 -0.00124211 0)
(-0.000954182 -0.000911257 0)
(-0.000585348 -0.000598923 0)
(-0.000319771 -0.000321625 0)
(-0.000146811 -0.000100423 0)
(-5.04102e-05 3.80625e-05 0)
(-9.66824e-06 6.06825e-05 0)
(-2.83521e-05 -2.98436e-05 0)
(-0.00012865 7.79054e-05 0)
(-0.000308355 0.000320607 0)
(-0.000587246 0.000658652 0)
(-0.000979908 0.00105982 0)
(-0.00149524 0.00149837 0)
(-0.00213772 0.00195401 0)
(-0.00290814 0.00241087 0)
(-0.00380425 0.00285673 0)
(-0.00482135 0.00328225 0)
(-0.00595275 0.00368037 0)
(-0.0071902 0.00404589 0)
(-0.00852421 0.00437505 0)
(-0.00994437 0.00466525 0)
(-0.0114396 0.00491481 0)
(-0.0129983 0.00512277 0)
(-0.0146087 0.00528876 0)
(-0.0162588 0.00541287 0)
(-0.0179366 0.00549557 0)
(-0.0196303 0.00553764 0)
(-0.0213281 0.00554009 0)
(-0.0230186 0.00550411 0)
(-0.0246907 0.00543107 0)
(-0.0263336 0.00532247 0)
(-0.027937 0.00517989 0)
(-0.0294911 0.005005 0)
(-0.0309864 0.00479955 0)
(-0.0324141 0.00456534 0)
(-0.0337658 0.00430421 0)
(-0.0350337 0.00401805 0)
(-0.0362106 0.00370879 0)
(-0.0372898 0.00337839 0)
(-0.0382653 0.00302883 0)
(-0.0391316 0.00266213 0)
(-0.0398839 0.00228035 0)
(-0.040518 0.00188556 0)
(-0.0410302 0.00147988 0)
(-0.0414177 0.00106545 0)
(-0.0416782 0.000644448 0)
(-0.04181 0.000219076 0)
(-0.0418123 -0.000208424 0)
(-0.0416848 -0.000635778 0)
(-0.0414278 -0.00106068 0)
(-0.0410427 -0.00148081 0)
(-0.0405312 -0.00189381 0)
(-0.0398958 -0.00229729 0)
(-0.0391398 -0.00268887 0)
(-0.0382672 -0.00306614 0)
(-0.0372827 -0.00342669 0)
(-0.0361917 -0.00376813 0)
(-0.0350003 -0.00408807 0)
(-0.0337152 -0.00438416 0)
(-0.0323441 -0.00465409 0)
(-0.0308949 -0.00489559 0)
(-0.0293764 -0.00510647 0)
(-0.0277982 -0.00528466 0)
(-0.0261701 -0.00542814 0)
(-0.0245026 -0.00553507 0)
(-0.0228068 -0.00560375 0)
(-0.021094 -0.00563265 0)
(-0.0193761 -0.00562048 0)
(-0.0176652 -0.00556617 0)
(-0.0159736 -0.00546895 0)
(-0.0143136 -0.00532839 0)
(-0.0126978 -0.00514444 0)
(-0.0111384 -0.00491753 0)
(-0.00964748 -0.00464862 0)
(-0.00823658 -0.00433933 0)
(-0.00691666 -0.00399205 0)
(-0.00569782 -0.00361016 0)
(-0.00458905 -0.00319815 0)
(-0.00359791 -0.002762 0)
(-0.00273024 -0.00230945 0)
(-0.00198972 -0.00185044 0)
(-0.00137744 -0.00139769 0)
(-0.000891375 -0.00096729 0)
(-0.000525794 -0.000579546 0)
(-0.000270578 -0.000259817 0)
(-0.000110108 -3.94976e-05 0)
(-2.38632e-05 4.31649e-05 0)
(-4.46181e-05 1.01196e-05 0)
(-0.00019652 0.000215249 0)
(-0.000448219 0.00057065 0)
(-0.000818505 0.00103308 0)
(-0.00132077 0.00156657 0)
(-0.00196267 0.00214179 0)
(-0.00274749 0.00273516 0)
(-0.00367493 0.00332792 0)
(-0.00474172 0.00390535 0)
(-0.00594216 0.00445599 0)
(-0.00726853 0.00497107 0)
(-0.00871152 0.00544399 0)
(-0.0102605 0.0058699 0)
(-0.011904 0.00624537 0)
(-0.0136296 0.00656813 0)
(-0.0154244 0.00683682 0)
(-0.0172754 0.00705085 0)
(-0.0191693 0.00721023 0)
(-0.0210925 0.00731547 0)
(-0.0230319 0.00736748 0)
(-0.0249745 0.0073675 0)
(-0.0269072 0.00731704 0)
(-0.0288178 0.00721783 0)
(-0.0306941 0.00707177 0)
(-0.0325245 0.00688091 0)
(-0.0342979 0.00664742 0)
(-0.0360038 0.00637358 0)
(-0.0376319 0.00606173 0)
(-0.0391731 0.0057143 0)
(-0.0406184 0.00533376 0)
(-0.0419597 0.00492267 0)
(-0.0431895 0.00448359 0)
(-0.0443008 0.00401917 0)
(-0.0452876 0.00353208 0)
(-0.0461444 0.00302504 0)
(-0.0468664 0.00250079 0)
(-0.0474496 0.00196215 0)
(-0.0478907 0.00141196 0)
(-0.048187 0.000853095 0)
(-0.0483369 0.000288493 0)
(-0.0483392 -0.000278879 0)
(-0.0481937 -0.000846009 0)
(-0.0479009 -0.00140985 0)
(-0.047462 -0.00196731 0)
(-0.0468793 -0.00251528 0)
(-0.0461555 -0.00305061 0)
(-0.0452944 -0.00357015 0)
(-0.0443005 -0.00407071 0)
(-0.0431791 -0.00454914 0)
(-0.0419362 -0.00500226 0)
(-0.0405788 -0.00542694 0)
(-0.0391146 -0.0058201 0)
(-0.037552 -0.00617869 0)
(-0.0359001 -0.00649976 0)
(-0.0341689 -0.00678045 0)
(-0.0323689 -0.00701802 0)
(-0.0305114 -0.0072099 0)
(-0.0286081 -0.00735368 0)
(-0.0266713 -0.00744717 0)
(-0.024714 -0.00748841 0)
(-0.0227493 -0.00747577 0)
(-0.0207907 -0.00740791 0)
(-0.018852 -0.00728391 0)
(-0.0169472 -0.00710327 0)
(-0.0150899 -0.00686603 0)
(-0.013294 -0.00657284 0)
(-0.0115728 -0.00622504 0)
(-0.00993918 -0.00582483 0)
(-0.00840537 -0.00537541 0)
(-0.00698261 -0.00488115 0)
(-0.00568098 -0.00434788 0)
(-0.00450908 -0.00378314 0)
(-0.0034737 -0.00319662 0)
(-0.00257945 -0.00260053 0)
(-0.00182836 -0.00201025 0)
(-0.00121936 -0.00144491 0)
(-0.000747753 -0.000928189 0)
(-0.000404489 -0.000489111 0)
(-0.000174935 -0.000162895 0)
(-3.9367e-05 8.49287e-06 0)
(-6.14395e-05 6.86714e-05 0)
(-0.000266586 0.000402383 0)
(-0.000592671 0.000896553 0)
(-0.00105735 0.0015055 0)
(-0.00167252 0.00219044 0)
(-0.0024442 0.00291915 0)
(-0.00337414 0.00366525 0)
(-0.00446063 0.00440743 0)
(-0.00569911 0.00512866 0)
(-0.00708267 0.00581549 0)
(-0.00860247 0.0064575 0)
(-0.0102481 0.00704668 0)
(-0.0120077 0.0075771 0)
(-0.0138688 0.00804448 0)
(-0.0158177 0.00844589 0)
(-0.0178405 0.00877958 0)
(-0.0199228 0.00904468 0)
(-0.0220501 0.00924111 0)
(-0.0242077 0.00936939 0)
(-0.0263811 0.00943058 0)
(-0.028556 0.00942617 0)
(-0.0307184 0.00935796 0)
(-0.0328545 0.00922807 0)
(-0.0349511 0.00903887 0)
(-0.0369955 0.00879288 0)
(-0.0389753 0.00849282 0)
(-0.040879 0.00814153 0)
(-0.0426955 0.00774199 0)
(-0.0444144 0.00729723 0)
(-0.0460261 0.0068104 0)
(-0.0475214 0.00628471 0)
(-0.0488921 0.00572345 0)
(-0.0501307 0.00512997 0)
(-0.0512302 0.00450765 0)
(-0.0521848 0.00385996 0)
(-0.0529891 0.00319042 0)
(-0.0536387 0.00250258 0)
(-0.0541299 0.00180008 0)
(-0.0544599 0.00108659 0)
(-0.0546268 0.000365835 0)
(-0.0546293 -0.000358392 0)
(-0.0544672 -0.00108226 0)
(-0.0541411 -0.00180189 0)
(-0.0536524 -0.00251335 0)
(-0.0530034 -0.00321269 0)
(-0.0521973 -0.00389591 0)
(-0.0512382 -0.00455899 0)
(-0.0501311 -0.00519792 0)
(-0.0488818 -0.00580867 0)
(-0.0474971 -0.00638723 0)
(-0.0459846 -0.00692966 0)
(-0.0443527 -0.00743202 0)
(-0.0426107 -0.00789051 0)
(-0.0407687 -0.00830138 0)
(-0.0388377 -0.00866105 0)
(-0.0368291 -0.00896608 0)
(-0.0347554 -0.00921325 0)
(-0.0326295 -0.00939954 0)
(-0.0304649 -0.00952225 0)
(-0.0282758 -0.00957896 0)
(-0.0260766 -0.00956765 0)
(-0.0238821 -0.00948672 0)
(-0.0217073 -0.00933507 0)
(-0.0195676 -0.00911217 0)
(-0.0174779 -0.00881816 0)
(-0.0154534 -0.00845391 0)
(-0.0135085 -0.00802123 0)
(-0.0116575 -0.00752292 0)
(-0.00991361 -0.006963 0)
(-0.00828937 -0.00634694 0)
(-0.00679592 -0.00568188 0)
(-0.00544296 -0.00497698 0)
(-0.00423838 -0.0042438 0)
(-0.00318794 -0.00349678 0)
(-0.00229485 -0.00275374 0)
(-0.00155933 -0.00203657 0)
(-0.000978071 -0.00137188 0)
(-0.000543474 -0.000791725 0)
(-0.000242207 -0.000334263 0)
(-5.54879e-05 -4.40319e-05 0)
(-7.83729e-05 0.000145937 0)
(-0.000337105 0.000640021 0)
(-0.000738347 0.00129976 0)
(-0.00129863 0.00207797 0)
(-0.00202823 0.00293386 0)
(-0.0029313 0.00383294 0)
(-0.00400778 0.00474655 0)
(-0.00525431 0.00565115 0)
(-0.00666483 0.00652769 0)
(-0.00823105 0.00736091 0)
(-0.00994286 0.0081388 0)
(-0.0117886 0.00885206 0)
(-0.0137554 0.00949367 0)
(-0.0158294 0.0100585 0)
(-0.017996 0.010543 0)
(-0.0202401 0.010945 0)
(-0.0225461 0.0112633 0)
(-0.0248984 0.0114978 0)
(-0.0272812 0.0116489 0)
(-0.0296788 0.011718 0)
(-0.0320759 0.0117067 0)
(-0.0344572 0.0116171 0)
(-0.036808 0.0114519 0)
(-0.039114 0.0112137 0)
(-0.0413612 0.0109057 0)
(-0.0435366 0.0105313 0)
(-0.0456275 0.0100937 0)
(-0.047622 0.00959674 0)
(-0.0495087 0.00904405 0)
(-0.0512772 0.00843951 0)
(-0.0529177 0.00778706 0)
(-0.0544212 0.00709076 0)
(-0.0557795 0.00635471 0)
(-0.0569853 0.00558311 0)
(-0.0580319 0.00478023 0)
(-0.0589137 0.00395041 0)
(-0.0596259 0.00309805 0)
(-0.0601645 0.00222763 0)
(-0.0605264 0.00134368 0)
(-0.0607095 0.000450826 0)
(-0.0607126 -0.000446273 0)
(-0.0605353 -0.00134288 0)
(-0.0601782 -0.00223421 0)
(-0.059643 -0.00311542 0)
(-0.0589322 -0.00398162 0)
(-0.0580491 -0.00482789 0)
(-0.0569983 -0.0056493 0)
(-0.0557852 -0.00644089 0)
(-0.054416 -0.00719772 0)
(-0.0528981 -0.00791487 0)
(-0.0512398 -0.00858747 0)
(-0.0494501 -0.00921073 0)
(-0.0475391 -0.00977996 0)
(-0.0455177 -0.0102906 0)
(-0.0433978 -0.0107382 0)
(-0.0411918 -0.0111187 0)
(-0.0389131 -0.0114281 0)
(-0.0365757 -0.0116628 0)
(-0.0341943 -0.0118194 0)
(-0.0317839 -0.0118951 0)
(-0.0293603 -0.0118874 0)
(-0.0269394 -0.0117945 0)
(-0.0245375 -0.0116151 0)
(-0.0221709 -0.0113486 0)
(-0.019856 -0.0109952 0)
(-0.017609 -0.0105562 0)
(-0.0154456 -0.0100337 0)
(-0.0133812 -0.00943118 0)
(-0.0114303 -0.00875353 0)
(-0.00960649 -0.00800727 0)
(-0.00792209 -0.00720089 0)
(-0.00638801 -0.00634509 0)
(-0.00501339 -0.00545326 0)
(-0.00380529 -0.00454188 0)
(-0.00276834 -0.00363104 0)
(-0.00190433 -0.00274503 0)
(-0.00121156 -0.00191297 0)
(-0.000684133 -0.00116933 0)
(-0.000310154 -0.000554474 0)
(-7.17746e-05 -0.000114597 0)
(-9.51423e-05 0.000241725 0)
(-0.000406983 0.000928045 0)
(-0.000883081 0.0017805 0)
(-0.00153896 0.00275112 0)
(-0.00238324 0.00379775 0)
(-0.00341808 0.00488422 0)
(-0.00464148 0.00598002 0)
(-0.00604824 0.00705977 0)
(-0.00763059 0.00810266 0)
(-0.00937875 0.00909182 0)
(-0.0112812 0.0100138 0)
(-0.0133249 0.0108581 0)
(-0.0154959 0.0116167 0)
(-0.0177791 0.0122837 0)
(-0.0201588 0.0128549 0)
(-0.0226187 0.0133276 0)
(-0.0251423 0.0137005 0)
(-0.0277127 0.0139733 0)
(-0.0303132 0.0141466 0)
(-0.0329271 0.0142217 0)
(-0.0355378 0.0142006 0)
(-0.0381293 0.0140858 0)
(-0.0406857 0.0138803 0)
(-0.0431917 0.0135873 0)
(-0.0456327 0.0132105 0)
(-0.0479944 0.0127539 0)
(-0.0502635 0.0122215 0)
(-0.0524271 0.0116176 0)
(-0.0544732 0.0109467 0)
(-0.0563906 0.0102135 0)
(-0.0581688 0.00942264 0)
(-0.0597982 0.00857901 0)
(-0.06127 0.00768756 0)
(-0.0625763 0.00675334 0)
(-0.0637102 0.00578148 0)
(-0.0646655 0.0047772 0)
(-0.0654371 0.00374582 0)
(-0.0660207 0.00269272 0)
(-0.0664131 0.00162338 0)
(-0.066612 0.000543345 0)
(-0.066616 -0.000541756 0)
(-0.0664248 -0.00162622 0)
(-0.0660391 -0.0027043 0)
(-0.0654606 -0.00377014 0)
(-0.0646918 -0.00481789 0)
(-0.0637366 -0.00584163 0)
(-0.0625996 -0.00683541 0)
(-0.0612867 -0.00779329 0)
(-0.0598046 -0.00870934 0)
(-0.058161 -0.00957766 0)
(-0.0563649 -0.0103924 0)
(-0.0544259 -0.0111478 0)
(-0.0523547 -0.0118384 0)
(-0.0501631 -0.0124585 0)
(-0.0478636 -0.013003 0)
(-0.0454696 -0.0134669 0)
(-0.0429953 -0.0138456 0)
(-0.0404556 -0.0141346 0)
(-0.0378662 -0.0143301 0)
(-0.0352432 -0.0144287 0)
(-0.0326034 -0.0144275 0)
(-0.0299639 -0.0143243 0)
(-0.0273418 -0.0141176 0)
(-0.0247549 -0.0138069 0)
(-0.0222204 -0.0133925 0)
(-0.0197558 -0.0128758 0)
(-0.0173779 -0.0122594 0)
(-0.0151033 -0.0115474 0)
(-0.0129477 -0.0107457 0)
(-0.0109258 -0.00986165 0)
(-0.00905118 -0.00890512 0)
(-0.00733611 -0.00788829 0)
(-0.00579109 -0.00682624 0)
(-0.00442464 -0.00573732 0)
(-0.003243 -0.00464364 0)
(-0.00224968 -0.00357161 0)
(-0.00144481 -0.00255239 0)
(-0.000824278 -0.0016224 0)
(-0.000377665 -0.000823565 0)
(-8.79459e-05 -0.000203067 0)
(-0.000111587 0.000355662 0)
(-0.000475576 0.00126582 0)
(-0.00102556 0.00233821 0)
(-0.00177622 0.0035246 0)
(-0.00273454 0.00478199 0)
(-0.0039007 0.006073 0)
(-0.00527063 0.00736568 0)
(-0.00683715 0.00863317 0)
(-0.0085907 0.00985316 0)
(-0.0105198 0.0110074 0)
(-0.0126115 0.0120812 0)
(-0.0148513 0.013063 0)
(-0.017224 0.0139437 0)
(-0.0197133 0.0147168 0)
(-0.0223023 0.0153775 0)
(-0.0249737 0.0159228 0)
(-0.0277097 0.0163511 0)
(-0.0304927 0.016662 0)
(-0.0333047 0.0168561 0)
(-0.0361282 0.0169349 0)
(-0.0389456 0.0169008 0)
(-0.0417399 0.0167566 0)
(-0.0444944 0.0165056 0)
(-0.0471929 0.0161518 0)
(-0.0498198 0.0156994 0)
(-0.0523602 0.0151529 0)
(-0.0547999 0.0145171 0)
(-0.0571253 0.0137971 0)
(-0.0593237 0.0129982 0)
(-0.0613832 0.0121257 0)
(-0.0632927 0.0111852 0)
(-0.0650422 0.0101825 0)
(-0.0666222 0.00912344 0)
(-0.0680245 0.00801388 0)
(-0.0692416 0.00685992 0)
(-0.0702671 0.00566773 0)
(-0.0710955 0.00444357 0)
(-0.0717224 0.00319381 0)
(-0.0721443 0.00192491 0)
(-0.0723586 0.000643423 0)
(-0.0723641 -0.000644017 0)
(-0.0721603 -0.00193068 0)
(-0.071748 -0.00320977 0)
(-0.0711289 -0.00447441 0)
(-0.0703058 -0.00571767 0)
(-0.0692827 -0.00693258 0)
(-0.0680645 -0.00811215 0)
(-0.0666573 -0.00924938 0)
(-0.0650682 -0.0103373 0)
(-0.0633056 -0.0113689 0)
(-0.0613786 -0.0123374 0)
(-0.0592975 -0.013236 0)
(-0.0570738 -0.0140581 0)
(-0.0547196 -0.0147973 0)
(-0.0522484 -0.0154475 0)
(-0.0496742 -0.0160029 0)
(-0.047012 -0.0164579 0)
(-0.0442777 -0.0168075 0)
(-0.0414878 -0.0170471 0)
(-0.0386593 -0.0171729 0)
(-0.03581 -0.0171814 0)
(-0.0329579 -0.0170701 0)
(-0.0301214 -0.0168374 0)
(-0.027319 -0.0164826 0)
(-0.0245694 -0.016006 0)
(-0.0218909 -0.0154094 0)
(-0.0193016 -0.0146958 0)
(-0.0168192 -0.0138699 0)
(-0.0144605 -0.0129383 0)
(-0.0122417 -0.0119095 0)
(-0.0101776 -0.0107945 0)
(-0.00828185 -0.00960686 0)
(-0.00656643 -0.00836323 0)
(-0.00504151 -0.00708367 0)
(-0.00371506 -0.00579206 0)
(-0.00259245 -0.00451659 0)
(-0.00167571 -0.00329014 0)
(-0.0009626 -0.00215062 0)
(-0.00044409 -0.00114105 0)
(-0.000103839 -0.000309121 0)
(-0.000127625 0.000487278 0)
(-0.000542548 0.00165239 0)
(-0.00116507 0.00297182 0)
(-0.00200919 0.00439742 0)
(-0.00308038 0.00588575 0)
(-0.00437681 0.00739857 0)
(-0.00589233 0.0089029 0)
(-0.00761771 0.0103707 0)
(-0.00954149 0.0117784 0)
(-0.0116504 0.0131066 0)
(-0.0139299 0.0143396 0)
(-0.0163642 0.0154647 0)
(-0.0189364 0.0164723 0)
(-0.0216292 0.0173549 0)
(-0.0244244 0.0181075 0)
(-0.0273035 0.0187266 0)
(-0.030248 0.0192105 0)
(-0.0332389 0.0195586 0)
(-0.0362575 0.0197719 0)
(-0.0392852 0.0198518 0)
(-0.0423036 0.0198011 0)
(-0.0452947 0.019623 0)
(-0.048241 0.0193213 0)
(-0.0511256 0.0189006 0)
(-0.053932 0.0183656 0)
(-0.0566447 0.0177216 0)
(-0.0592486 0.0169741 0)
(-0.0617296 0.016129 0)
(-0.0640743 0.0151923 0)
(-0.0662703 0.0141703 0)
(-0.0683059 0.0130695 0)
(-0.0701705 0.0118965 0)
(-0.0718544 0.010658 0)
(-0.0733488 0.00936093 0)
(-0.0746458 0.00801237 0)
(-0.0757388 0.00661944 0)
(-0.076622 0.00518942 0)
(-0.0772907 0.0037297 0)
(-0.0777413 0.00224777 0)
(-0.0779711 0.000751245 0)
(-0.0779787 -0.000752171 0)
(-0.0777636 -0.00225467 0)
(-0.0773267 -0.00374837 0)
(-0.0766696 -0.0052253 0)
(-0.0757955 -0.00667742 0)
(-0.0747082 -0.00809665 0)
(-0.0734131 -0.00947489 0)
(-0.0719165 -0.010804 0)
(-0.0702258 -0.0120759 0)
(-0.0683497 -0.0132826 0)
(-0.0662978 -0.0144161 0)
(-0.064081 -0.0154686 0)
(-0.0617111 -0.0164324 0)
(-0.059201 -0.0173002 0)
(-0.0565647 -0.018065 0)
(-0.0538168 -0.0187198 0)
(-0.0509733 -0.0192585 0)
(-0.0480506 -0.0196751 0)
(-0.0450661 -0.0199645 0)
(-0.0420379 -0.020122 0)
(-0.0389844 -0.0201439 0)
(-0.0359246 -0.0200273 0)
(-0.0328781 -0.0197702 0)
(-0.0298642 -0.0193718 0)
(-0.0269028 -0.0188326 0)
(-0.0240132 -0.0181545 0)
(-0.0212147 -0.0173409 0)
(-0.0185263 -0.0163971 0)
(-0.0159659 -0.0153304 0)
(-0.0135511 -0.0141503 0)
(-0.0112981 -0.0128688 0)
(-0.00922198 -0.0115008 0)
(-0.00733642 -0.0100643 0)
(-0.00565326 -0.00858095 0)
(-0.00418235 -0.00707615 0)
(-0.00293097 -0.0055796 0)
(-0.00190313 -0.00412561 0)
(-0.00109841 -0.0027532 0)
(-0.000509104 -0.00150615 0)
(-0.000119374 -0.000432343 0)
(-0.000143227 0.000636067 0)
(-0.000607774 0.00208668 0)
(-0.00130131 0.00368001 0)
(-0.00223731 0.00536823 0)
(-0.00341986 0.00710773 0)
(-0.00484519 0.00885978 0)
(-0.00650502 0.0105906 0)
(-0.00838807 0.0122712 0)
(-0.0104809 0.0138772 0)
(-0.0127684 0.0153882 0)
(-0.0152344 0.0167874 0)
(-0.0178614 0.0180616 0)
(-0.0206313 0.0192003 0)
(-0.0235253 0.0201956 0)
(-0.0265241 0.0210419 0)
(-0.0296081 0.0217357 0)
(-0.0327577 0.0222749 0)
(-0.0359528 0.0226592 0)
(-0.0391739 0.0228894 0)
(-0.0424013 0.0229675 0)
(-0.0456159 0.0228964 0)
(-0.0487989 0.0226797 0)
(-0.0519319 0.0223219 0)
(-0.0549973 0.021828 0)
(-0.0579779 0.0212035 0)
(-0.0608575 0.0204544 0)
(-0.0636204 0.019587 0)
(-0.0662518 0.0186079 0)
(-0.0687379 0.017524 0)
(-0.0710657 0.0163426 0)
(-0.073223 0.015071 0)
(-0.0751988 0.0137167 0)
(-0.0769828 0.0122875 0)
(-0.0785661 0.0107913 0)
(-0.0799404 0.00923617 0)
(-0.0810987 0.00763024 0)
(-0.0820351 0.00598185 0)
(-0.0827446 0.00429946 0)
(-0.0832234 0.00259166 0)
(-0.0834687 0.00086714 0)
(-0.0834792 -0.000865274 0)
(-0.0832542 -0.00259666 0)
(-0.0827945 -0.00431798 0)
(-0.0821019 -0.00602013 0)
(-0.0811796 -0.00769392 0)
(-0.0800317 -0.0093301 0)
(-0.0786636 -0.0109194 0)
(-0.0770819 -0.0124526 0)
(-0.0752943 -0.0139203 0)
(-0.0733097 -0.0153135 0)
(-0.0711382 -0.016623 0)
(-0.068791 -0.01784 0)
(-0.0662805 -0.0189556 0)
(-0.0636201 -0.0199615 0)
(-0.0608241 -0.0208496 0)
(-0.0579082 -0.0216121 0)
(-0.0548886 -0.0222418 0)
(-0.0517827 -0.0227322 0)
(-0.0486086 -0.0230771 0)
(-0.0453851 -0.0232714 0)
(-0.0421316 -0.0233108 0)
(-0.0388681 -0.023192 0)
(-0.0356149 -0.0229126 0)
(-0.0323925 -0.0224718 0)
(-0.0292217 -0.02187 0)
(-0.0261231 -0.0211092 0)
(-0.0231171 -0.0201933 0)
(-0.0202238 -0.019128 0)
(-0.0174627 -0.0179213 0)
(-0.0148525 -0.0165835 0)
(-0.012411 -0.0151276 0)
(-0.0101549 -0.0135698 0)
(-0.00809958 -0.0119292 0)
(-0.00625864 -0.0102288 0)
(-0.00464385 -0.00849537 0)
(-0.00326451 -0.0067599 0)
(-0.0021266 -0.00505783 0)
(-0.00123145 -0.00342909 0)
(-0.000572602 -0.00191795 0)
(-0.000134524 -0.000572285 0)
(-0.000158397 0.00080153 0)
(-0.000671267 0.00256756 0)
(-0.00143426 0.00446133 0)
(-0.00246048 0.00643548 0)
(-0.00375275 0.00844644 0)
(-0.00530539 0.0104552 0)
(-0.00710809 0.0124275 0)
(-0.00914745 0.0143336 0)
(-0.011408 0.0161484 0)
(-0.0138728 0.0178508 0)
(-0.0165239 0.0194234 0)
(-0.0193422 0.020852 0)
(-0.0223081 0.0221259 0)
(-0.0254014 0.0232366 0)
(-0.0286017 0.0241784 0)
(-0.0318882 0.0249473 0)
(-0.0352401 0.0255414 0)
(-0.0386364 0.0259603 0)
(-0.0420566 0.0262051 0)
(-0.0454802 0.026278 0)
(-0.0488872 0.0261822 0)
(-0.0522579 0.0259221 0)
(-0.0555734 0.0255026 0)
(-0.0588152 0.0249292 0)
(-0.0619656 0.0242083 0)
(-0.0650076 0.0233465 0)
(-0.0679251 0.022351 0)
(-0.0707027 0.0212292 0)
(-0.0733261 0.019989 0)
(-0.0757817 0.0186384 0)
(-0.0780571 0.0171858 0)
(-0.0801406 0.0156398 0)
(-0.0820219 0.014009 0)
(-0.0836914 0.0123025 0)
(-0.0851408 0.0105292 0)
(-0.0863628 0.00869847 0)
(-0.0873511 0.00681972 0)
(-0.0881006 0.0049025 0)
(-0.0886075 0.00295651 0)
(-0.0888687 0.000991574 0)
(-0.0888828 -0.000982323 0)
(-0.0886492 -0.0029551 0)
(-0.0881685 -0.00491654 0)
(-0.0874428 -0.00685636 0)
(-0.0864751 -0.00876417 0)