/*--------------------------------*- C++ -*----------------------------------*\
| =========                 |                                                 |
| \\      /  F ield         | OpenFOAM: The Open Source CFD Toolbox           |
|  \\    /   O peration     | Version:  4.1                                   |
|   \\  /    A nd           | Web:      www.OpenFOAM.org                      |
|    \\/     M anipulation  |                                                 |
\*---------------------------------------------------------------------------*/
FoamFile
{
    version     2.0;
    format      ascii;
    class       volVectorField;
    location    "0.182";
    object      U;
}
// * * * * * * * * * * * * * * * * * * * * * * * * * * * * * * * * * * * * * //

dimensions      [0 1 -1 0 0 0 0];

internalField   nonuniform List<vector> 
100
(
(-0.00134304 0.000704806 0)
(-0.00409131 0.00107399 0)
(-0.0118775 0.00146415 0)
(-0.016459 0.000704147 0)
(-0.0214393 0.00047023 0)
(-0.0229905 -0.00091399 0)
(-0.0210905 -0.00160734 0)
(-0.0167098 -0.00313319 0)
(-0.00671571 -0.00301241 0)
(-0.00215798 -0.0022892 0)
(-0.00291328 0.00477981 0)
(-0.0110003 0.00939249 0)
(-0.0265113 0.0112004 0)
(-0.0364712 0.00864429 0)
(-0.0457041 0.00646286 0)
(-0.0485007 0.000279031 0)
(-0.0447201 -0.00433616 0)
(-0.0353961 -0.0115296 0)
(-0.0162212 -0.0114366 0)
(-0.00412864 -0.00657058 0)
(-0.00382251 0.0146205 0)
(-0.0150667 0.0244603 0)
(-0.0348564 0.0271674 0)
(-0.0481136 0.0194639 0)
(-0.0605648 0.0128027 0)
(-0.0653111 -0.0024177 0)
(-0.0622906 -0.0145147 0)
(-0.0510305 -0.0321807 0)
(-0.0259056 -0.0343977 0)
(-0.00661889 -0.0228666 0)
(-0.0060955 0.0234776 0)
(-0.0209882 0.0401319 0)
(-0.0460982 0.0444174 0)
(-0.0633689 0.0340068 0)
(-0.0798387 0.024169 0)
(-0.0883884 0.00179653 0)
(-0.0882486 -0.0179368 0)
(-0.0767174 -0.0479529 0)
(-0.0442317 -0.0553367 0)
(-0.011958 -0.0386379 0)
(-0.00719302 0.0419324 0)
(-0.0242024 0.0641341 0)
(-0.0529854 0.0700519 0)
(-0.0737622 0.0524682 0)
(-0.0956303 0.0382804 0)
(-0.110229 0.00503138 0)
(-0.117418 -0.0260068 0)
(-0.109281 -0.0774114 0)
(-0.0716839 -0.0997783 0)
(-0.0206195 -0.0799892 0)
(-0.0139649 0.0542581 0)
(-0.0368831 0.0852117 0)
(-0.0710839 0.0940866 0)
(-0.0961828 0.0759374 0)
(-0.121813 0.0613741 0)
(-0.14214 0.0231917 0)
(-0.157499 -0.0176033 0)
(-0.153967 -0.0935709 0)
(-0.11374 -0.14289 0)
(-0.036495 -0.130154 0)
(-0.0153124 0.0937145 0)
(-0.0374047 0.120505 0)
(-0.0707828 0.130574 0)
(-0.0934472 0.101764 0)
(-0.117841 0.085055 0)
(-0.136034 0.0387755 0)
(-0.157536 -0.0137923 0)
(-0.159543 -0.123542 0)
(-0.133781 -0.218665 0)
(-0.0501704 -0.233803 0)
(-0.0397458 0.105207 0)
(-0.0692182 0.139148 0)
(-0.0816553 0.150434 0)
(-0.0862713 0.121783 0)
(-0.0862905 0.105474 0)
(-0.0827396 0.0621846 0)
(-0.0962659 0.00875902 0)
(-0.0973137 -0.116444 0)
(-0.107072 -0.248259 0)
(-0.0520109 -0.312608 0)
(-0.0362807 0.205862 0)
(-0.0243419 0.160684 0)
(0.0111913 0.151183 0)
(0.0554457 0.104352 0)
(0.0914888 0.0837969 0)
(0.137895 0.0460681 0)
(0.147155 0.00306276 0)
(0.161736 -0.115047 0)
(0.0844378 -0.262863 0)
(0.0194153 -0.400313 0)
(0.146818 0.160084 0)
(0.234817 0.0888449 0)
(0.384298 0.0723574 0)
(0.462792 0.0406788 0)
(0.525103 0.0263557 0)
(0.57502 0.00717654 0)
(0.576479 -0.00793396 0)
(0.573544 -0.0475408 0)
(0.41323 -0.0919085 0)
(0.220958 -0.195315 0)
)
;

boundaryField
{
    movingWall
    {
        type            fixedValue;
        value           uniform (1 0 0);
    }
    fixedWalls
    {
        type            noSlip;
    }
    frontAndBack
    {
        type            empty;
    }
}


// ************************************************************************* //
