/*--------------------------------*- C++ -*----------------------------------*\
| =========                 |                                                 |
| \\      /  F ield         | OpenFOAM: The Open Source CFD Toolbox           |
|  \\    /   O peration     | Version:  4.1                                   |
|   \\  /    A nd           | Web:      www.OpenFOAM.org                      |
|    \\/     M anipulation  |                                                 |
\*---------------------------------------------------------------------------*/
FoamFile
{
    version     2.0;
    format      ascii;
    class       volVectorField;
    location    "0.034";
    object      U;
}
// * * * * * * * * * * * * * * * * * * * * * * * * * * * * * * * * * * * * * //

dimensions      [0 1 -1 0 0 0 0];

internalField   nonuniform List<vector> 
100
(
(-0.00190705 0.00199067 0)
(-0.00484136 0.00187588 0)
(-0.00905928 0.00172597 0)
(-0.0111131 0.000855715 0)
(-0.0127664 0.000457721 0)
(-0.0128243 -0.000575215 0)
(-0.0114169 -0.00099339 0)
(-0.00939101 -0.00192422 0)
(-0.00509775 -0.00210264 0)
(-0.00206475 -0.00224377 0)
(-0.00256794 0.00475543 0)
(-0.00707111 0.00514553 0)
(-0.0129828 0.00475425 0)
(-0.0159609 0.00259633 0)
(-0.0182011 0.00156428 0)
(-0.0182827 -0.00105019 0)
(-0.0163743 -0.00213242 0)
(-0.0134367 -0.00459063 0)
(-0.00743109 -0.00504907 0)
(-0.0027676 -0.00489744 0)
(-0.00303962 0.0118014 0)
(-0.00803749 0.0122433 0)
(-0.0146506 0.0109862 0)
(-0.0179219 0.00578744 0)
(-0.020452 0.00312381 0)
(-0.0205667 -0.00285401 0)
(-0.0185883 -0.00565037 0)
(-0.0153882 -0.0113691 0)
(-0.0086815 -0.0128366 0)
(-0.00345198 -0.0127377 0)
(-0.00473972 0.0155283 0)
(-0.0114241 0.0163241 0)
(-0.0200245 0.0147168 0)
(-0.0241993 0.00798872 0)
(-0.0272191 0.00461708 0)
(-0.0274393 -0.00314446 0)
(-0.0252377 -0.00667762 0)
(-0.0212309 -0.0144415 0)
(-0.0125198 -0.0163247 0)
(-0.00536108 -0.0165805 0)
(-0.00584935 0.0285455 0)
(-0.0135436 0.0275504 0)
(-0.0234162 0.0245499 0)
(-0.0280919 0.0125183 0)
(-0.0315958 0.00693216 0)
(-0.0319046 -0.00569788 0)
(-0.0299223 -0.0116762 0)
(-0.0255819 -0.0252243 0)
(-0.0158517 -0.0290569 0)
(-0.00739948 -0.0315478 0)
(-0.0114008 0.034086 0)
(-0.0233321 0.0329609 0)
(-0.0357538 0.0292575 0)
(-0.0418905 0.0154423 0)
(-0.04541 0.00911897 0)
(-0.0460471 -0.00512429 0)
(-0.0447571 -0.0117457 0)
(-0.0394195 -0.0282155 0)
(-0.0273319 -0.0329672 0)
(-0.0137055 -0.0386995 0)
(-0.0138409 0.0648162 0)
(-0.028098 0.051834 0)
(-0.0414886 0.0447794 0)
(-0.0480447 0.0212466 0)
(-0.0517909 0.0121276 0)
(-0.0523791 -0.00801432 0)
(-0.0525392 -0.0179847 0)
(-0.0474423 -0.0450881 0)
(-0.0366797 -0.0554988 0)
(-0.019902 -0.0750387 0)
(-0.0339178 0.0737738 0)
(-0.0579157 0.0587325 0)
(-0.0642153 0.049116 0)
(-0.0702358 0.0244919 0)
(-0.0697699 0.0146685 0)
(-0.0706218 -0.00489282 0)
(-0.07579 -0.0142975 0)
(-0.071425 -0.0434247 0)
(-0.0678236 -0.0570282 0)
(-0.0376438 -0.0926116 0)
(-0.0293832 0.160671 0)
(-0.0392501 0.0811405 0)
(-0.0340604 0.0604752 0)
(-0.0318615 0.0248774 0)
(-0.0277309 0.0142705 0)
(-0.0233751 -0.00493522 0)
(-0.029693 -0.0163992 0)
(-0.0228532 -0.0579621 0)
(-0.0360416 -0.090138 0)
(-0.0154589 -0.187698 0)
(0.135103 0.135431 0)
(0.178721 0.0601295 0)
(0.268568 0.0422579 0)
(0.287976 0.0165834 0)
(0.30714 0.00840586 0)
(0.313755 -0.0038044 0)
(0.295849 -0.0105077 0)
(0.289842 -0.035897 0)
(0.197139 -0.0559413 0)
(0.148651 -0.134369 0)
)
;

boundaryField
{
    movingWall
    {
        type            fixedValue;
        value           uniform (1 0 0);
    }
    fixedWalls
    {
        type            noSlip;
    }
    frontAndBack
    {
        type            empty;
    }
}


// ************************************************************************* //
