/*--------------------------------*- C++ -*----------------------------------*\
| =========                 |                                                 |
| \\      /  F ield         | OpenFOAM: The Open Source CFD Toolbox           |
|  \\    /   O peration     | Version:  4.1                                   |
|   \\  /    A nd           | Web:      www.OpenFOAM.org                      |
|    \\/     M anipulation  |                                                 |
\*---------------------------------------------------------------------------*/
FoamFile
{
    version     2.0;
    format      ascii;
    class       volScalarField;
    location    "0.0084";
    object      p;
}
// * * * * * * * * * * * * * * * * * * * * * * * * * * * * * * * * * * * * * //

dimensions      [1 -1 -2 0 0 0 0];

internalField   nonuniform List<scalar> 
441
(
100000
99999.9
99999.8
99999.8
99999.9
99999.5
99999.9
100000
100000
100001
100001
100001
100001
100001
100001
100001
100001
100001
100001
100001
100001
100000
100000
100000
100000
100000
100000
100000
100000
100000
100000
100000
100000
100000
100001
100000
100001
100000
100001
100000
100001
100000
100000
99999.9
100000
99999.9
100000
99999.9
100000
100000
100000
100000
100001
100001
100001
100001
100001
100001
100001
100001
100001
100001
100000
100000
100000
100000
100000
100000
100000
100000
100000
100000
100000
100000
100000
100000
100001
100000
100001
100000
100001
100000
100001
100000
100001
99999.7
99999.9
99999.8
99999.9
99999.9
100000
100000
100000
100000
100000
100000
100001
100001
100001
100001
100001
100001
100001
100001
100000
99999.4
99999.8
99999.7
99999.8
99999.8
99999.9
100000
100000
100000
100000
100000
100000
100001
100001
100001
100001
100001
100001
100001
100001
100000
99999.1
99999.3
99999.3
99999.4
99999.5
99999.6
99999.8
99999.9
100000
100000
100000
100001
100001
100001
100001
100001
100001
100001
100001
100001
100000
99999.3
99999.3
99999.2
99999.3
99999.4
99999.5
99999.6
99999.8
99999.9
100000
100000
100000
100001
100001
100001
100001
100001
100001
100001
100001
100000
99998.7
99998.7
99998.7
99998.8
99998.9
99999.1
99999.3
99999.5
99999.7
100000
100000
100001
100001
100001
100001
100001
100001
100002
100001
100002
100001
99998.6
99998.5
99998.5
99998.6
99998.7
99998.9
99999
99999.3
99999.5
99999.8
100000
100000
100001
100001
100001
100002
100001
100002
100001
100002
100000
99997.8
99997.6
99997.7
99997.8
99998
99998.3
99998.5
99998.9
99999.2
99999.6
100000
100000
100001
100001
100002
100002
100002
100003
100002
100003
100002
99997.5
99997.3
99997.3
99997.5
99997.6
99997.9
99998.1
99998.5
99998.8
99999.3
99999.8
100000
100001
100001
100002
100002
100002
100003
100002
100003
100002
99996.2
99996.1
99996
99996.4
99996.5
99997
99997.2
99997.8
99998.3
99998.9
99999.6
100000
100001
100002
100002
100003
100003
100004
100003
100004
100001
99995.9
99995.8
99995.7
99996
99996
99996.5
99996.7
99997.3
99997.8
99998.4
99999.1
99999.8
100001
100001
100002
100003
100004
100004
100004
100005
100002
99993.7
99993.8
99993.5
99994.3
99994.3
99995.2
99995.5
99996.3
99996.9
99997.8
99998.7
99999.5
100001
100002
100003
100004
100006
100006
100007
100006
100002
99993.7
99993.8
99993.3
99994.1
99993.8
99994.6
99994.8
99995.6
99996.2
99997.1
99998.1
99998.8
100000
100001
100003
100003
100005
100006
100006
100007
99997.3
99989.2
99990.6
99989.7
99991.7
99991.3
99992.9
99993.2
99994.5
99995.2
99996.3
99997.5
99998.4
100000
100001
100004
100004
100008
100008
100016
100010
100027
99989.8
99991.2
99989.8
99991.6
99990.9
99992.4
99992.5
99993.7
99994.5
99995.5
99996.8
99997.5
99999.3
99999.8
100002
100003
100007
100007
100015
100016
100027
99978.5
99985.9
99983.8
99988.7
99988
99990.8
99991
99992.8
99993.8
99995
99996.4
99997.3
99999.4
99999.8
100003
100003
100009
100009
100022
100024
100040
99979.5
99988.3
99985.4
99989.6
99988.4
99990.9
99991
99992.7
99993.5
99994.7
99996.1
99996.9
99998.9
99999.2
100002
100002
100008
100008
100021
100026
100046
99938.1
99981.7
99979.9
99989.9
99988.4
99991.7
99991.6
99993.3
99994
99995.1
99996.5
99997.2
99999.4
99999.7
100003
100004
100012
100013
100034
100044
100101
)
;

boundaryField
{
    movingWall
    {
        type            zeroGradient;
    }
    fixedWalls
    {
        type            zeroGradient;
    }
    frontAndBack
    {
        type            empty;
    }
}


// ************************************************************************* //
