/*--------------------------------*- C++ -*----------------------------------*\
| =========                 |                                                 |
| \\      /  F ield         | OpenFOAM: The Open Source CFD Toolbox           |
|  \\    /   O peration     | Version:  4.1                                   |
|   \\  /    A nd           | Web:      www.OpenFOAM.org                      |
|    \\/     M anipulation  |                                                 |
\*---------------------------------------------------------------------------*/
FoamFile
{
    version     2.0;
    format      ascii;
    class       volVectorField;
    location    "0.279";
    object      U;
}
// * * * * * * * * * * * * * * * * * * * * * * * * * * * * * * * * * * * * * //

dimensions      [0 1 -1 0 0 0 0];

internalField   nonuniform List<vector> 
1600
(
(1.46408e-05 -1.62067e-05 0)
(1.27466e-05 3.47203e-05 0)
(-8.53929e-05 0.000127636 0)
(-0.000301835 0.000235146 0)
(-0.000639939 0.000341016 0)
(-0.00109051 0.000435975 0)
(-0.00163733 0.000514827 0)
(-0.00226038 0.000574936 0)
(-0.00293793 0.000615284 0)
(-0.00364793 0.0006359 0)
(-0.00436887 0.000637489 0)
(-0.00508034 0.000621193 0)
(-0.00576341 0.000588435 0)
(-0.00640088 0.000540816 0)
(-0.00697737 0.000480056 0)
(-0.0074795 0.000407952 0)
(-0.00789589 0.000326361 0)
(-0.00821723 0.000237195 0)
(-0.00843635 0.000142413 0)
(-0.00854822 4.4034e-05 0)
(-0.00855007 -5.58673e-05 0)
(-0.0084414 -0.000155154 0)
(-0.00822402 -0.000251632 0)
(-0.00790218 -0.00034306 0)
(-0.00748255 -0.000427165 0)
(-0.00697425 -0.00050167 0)
(-0.00638887 -0.000564333 0)
(-0.0057404 -0.000612995 0)
(-0.00504512 -0.000645644 0)
(-0.00432144 -0.000660491 0)
(-0.0035896 -0.000656075 0)
(-0.00287133 -0.000631382 0)
(-0.0021893 -0.000586019 0)
(-0.00156635 -0.000520445 0)
(-0.00102448 -0.00043631 0)
(-0.00058336 -0.00033698 0)
(-0.000258141 -0.000228387 0)
(-5.62872e-05 -0.000120402 0)
(2.77623e-05 -2.94321e-05 0)
(1.82215e-05 1.83496e-05 0)
(-3.87125e-05 -1.69288e-05 0)
(-0.000223577 0.000212905 0)
(-0.000652677 0.000599195 0)
(-0.00137312 0.00103896 0)
(-0.00239278 0.00147042 0)
(-0.00369043 0.00185707 0)
(-0.00522727 0.00217798 0)
(-0.0069541 0.00242227 0)
(-0.00881641 0.00258554 0)
(-0.0107579 0.00266767 0)
(-0.0127228 0.00267138 0)
(-0.0146579 0.00260121 0)
(-0.016513 0.00246294 0)
(-0.0182424 0.00226313 0)
(-0.0198051 0.00200885 0)
(-0.0211651 0.00170755 0)
(-0.022292 0.00136694 0)
(-0.0231607 0.000994945 0)
(-0.023752 0.00059973 0)
(-0.0240525 0.000189674 0)
(-0.024055 -0.000226605 0)
(-0.0237583 -0.000640251 0)
(-0.0231676 -0.00104218 0)
(-0.0222946 -0.00142314 0)
(-0.0211573 -0.00177376 0)
(-0.0197805 -0.00208466 0)
(-0.0181952 -0.00234662 0)
(-0.0164386 -0.00255079 0)
(-0.0145542 -0.00268894 0)
(-0.0125903 -0.00275378 0)
(-0.0106 -0.00273935 0)
(-0.00863981 -0.00264159 0)
(-0.00676799 -0.00245899 0)
(-0.00504268 -0.00219353 0)
(-0.00351903 -0.00185205 0)
(-0.00224544 -0.00144826 0)
(-0.0012583 -0.00100592 0)
(-0.000574946 -0.000563956 0)
(-0.000182471 -0.000185274 0)
(-2.85444e-05 2.8691e-05 0)
(-0.000134698 7.78889e-05 0)
(-0.000620551 0.000634992 0)
(-0.00147743 0.00143945 0)
(-0.00275718 0.0023251 0)
(-0.00446594 0.00318531 0)
(-0.00657225 0.00395354 0)
(-0.0090204 0.00459004 0)
(-0.0117395 0.00507313 0)
(-0.0146502 0.00539351 0)
(-0.0176699 0.00555021 0)
(-0.020716 0.00554803 0)
(-0.0237087 0.00539564 0)
(-0.0265732 0.00510434 0)
(-0.0292402 0.00468721 0)
(-0.0316478 0.00415854 0)
(-0.0337414 0.00353347 0)
(-0.0354747 0.00282776 0)
(-0.0368097 0.00205772 0)
(-0.0377172 0.00124013 0)
(-0.0381772 0.000392271 0)
(-0.0381786 -0.000468129 0)
(-0.0377201 -0.00132286 0)
(-0.0368097 -0.00215328 0)
(-0.0354655 -0.00294043 0)
(-0.0337151 -0.00366518 0)
(-0.031596 -0.00430846 0)
(-0.0291555 -0.00485159 0)
(-0.02645 -0.00527669 0)
(-0.0235445 -0.00556727 0)
(-0.0205118 -0.00570881 0)
(-0.017431 -0.00568967 0)
(-0.014386 -0.00550211 0)
(-0.0114629 -0.00514361 0)
(-0.00874679 -0.00461871 0)
(-0.00631801 -0.00394144 0)
(-0.00424648 -0.00313886 0)
(-0.00258478 -0.00225628 0)
(-0.00135922 -0.00136511 0)
(-0.000556852 -0.000574949 0)
(-0.000118365 -5.1483e-05 0)
(-0.000249357 0.000292289 0)
(-0.00108823 0.00135536 0)
(-0.00242073 0.00271315 0)
(-0.00428976 0.00415447 0)
(-0.00669163 0.00553512 0)
(-0.00958188 0.00676042 0)
(-0.012889 0.00777144 0)
(-0.0165236 0.00853481 0)
(-0.0203864 0.00903539 0)
(-0.0243733 0.00927099 0)
(-0.0283803 0.00924853 0)
(-0.0323067 0.00898137 0)
(-0.0360571 0.0084873 0)
(-0.0395437 0.00778726 0)
(-0.0426872 0.00690432 0)
(-0.0454182 0.00586315 0)
(-0.0476772 0.00468956 0)
(-0.0494157 0.00341036 0)
(-0.0505967 0.00205319 0)
(-0.0511942 0.000646496 0)
(-0.0511947 -0.000780486 0)
(-0.0505964 -0.00219778 0)
(-0.0494099 -0.00357477 0)
(-0.0476583 -0.00488035 0)
(-0.0453772 -0.00608323 0)
(-0.0426147 -0.0071523 0)
(-0.039431 -0.00805719 0)
(-0.0358979 -0.00876899 0)
(-0.032098 -0.00926111 0)
(-0.0281235 -0.00951039 0)
(-0.0240746 -0.00949845 0)
(-0.020057 -0.00921334 0)
(-0.0161789 -0.00865164 0)
(-0.0125474 -0.00782108 0)
(-0.00926325 -0.0067441 0)
(-0.00641497 -0.00546253 0)
(-0.0040707 -0.00404414 0)
(-0.00226897 -0.0025916 0)
(-0.00100536 -0.00125489 0)
(-0.000227655 -0.00024701 0)
(-0.000369859 0.000635501 0)
(-0.00157875 0.00239905 0)
(-0.00340419 0.00445436 0)
(-0.00587318 0.00656139 0)
(-0.00896595 0.00854768 0)
(-0.0126215 0.0102952 0)
(-0.0167512 0.0117278 0)
(-0.0212483 0.0128012 0)
(-0.0259954 0.0134947 0)
(-0.0308704 0.0138051 0)
(-0.0357514 0.0137416 0)
(-0.0405202 0.0133231 0)
(-0.045065 0.0125748 0)
(-0.0492827 0.0115265 0)
(-0.0530802 0.0102116 0)
(-0.0563756 0.00866584 0)
(-0.0590993 0.00692679 0)
(-0.0611942 0.00503358 0)
(-0.0626167 0.00302665 0)
(-0.0633367 0.000947613 0)
(-0.0633379 -0.00116074 0)
(-0.0626184 -0.0032546 0)
(-0.061191 -0.00528924 0)
(-0.0590827 -0.00721933 0)
(-0.0563354 -0.00899932 0)
(-0.0530056 -0.010584 0)
(-0.0491637 -0.0119295 0)
(-0.044894 -0.0129939 0)
(-0.0402932 -0.013739 0)
(-0.0354693 -0.0141316 0)
(-0.0305394 -0.0141457 0)
(-0.0256273 -0.0137643 0)
(-0.02086 -0.0129828 0)
(-0.0163633 -0.0118121 0)
(-0.0122565 -0.0102832 0)
(-0.00864619 -0.00845233 0)
(-0.00561748 -0.00640823 0)
(-0.00322514 -0.00428091 0)
(-0.00147978 -0.0022524 0)
(-0.00034351 -0.000567977 0)
(-0.000490019 0.00110802 0)
(-0.0020683 0.00377162 0)
(-0.00438688 0.00667377 0)
(-0.00745415 0.00955774 0)
(-0.0112306 0.0122317 0)
(-0.0156354 0.0145599 0)
(-0.0205614 0.0164528 0)
(-0.0258837 0.0178571 0)
(-0.0314676 0.0187479 0)
(-0.0371747 0.0191216 0)
(-0.0428674 0.0189912 0)
(-0.0484126 0.0183815 0)
(-0.0536848 0.0173261 0)
(-0.0585684 0.0158651 0)
(-0.062959 0.0140433 0)
(-0.066765 0.0119089 0)
(-0.0699082 0.00951274 0)
(-0.072325 0.00690778 0)
(-0.0739664 0.00414883 0)
(-0.0747988 0.00129235 0)
(-0.0748039 -0.00160367 0)
(-0.0739797 -0.00447985 0)
(-0.0723402 -0.00727565 0)
(-0.0699155 -0.00992972 0)
(-0.0667522 -0.0123805 0)
(-0.0629134 -0.014567 0)
(-0.0584775 -0.01643 0)
(-0.0535388 -0.0179131 0)
(-0.0482052 -0.018965 0)
(-0.0425977 -0.019541 0)
(-0.0368478 -0.0196062 0)
(-0.0310947 -0.0191377 0)
(-0.0254819 -0.0181288 0)
(-0.0201528 -0.0165927 0)
(-0.015245 -0.0145678 0)
(-0.0108834 -0.0121232 0)
(-0.00717271 -0.00936575 0)
(-0.00418715 -0.00644779 0)
(-0.00195638 -0.00357562 0)
(-0.000459728 -0.0010158 0)
(-0.000607216 0.00170662 0)
(-0.00254659 0.00546938 0)
(-0.0053503 0.00936999 0)
(-0.00900773 0.0131434 0)
(-0.0134577 0.0165859 0)
(-0.0185977 0.0195499 0)
(-0.0242999 0.0219363 0)
(-0.0304206 0.0236861 0)
(-0.0368079 0.0247721 0)
(-0.0433075 0.0251924 0)
(-0.0497674 0.0249647 0)
(-0.0560415 0.0241211 0)
(-0.0619927 0.022705 0)
(-0.0674946 0.0207677 0)
(-0.0724338 0.0183667 0)
(-0.0767107 0.0155638 0)
(-0.0802408 0.0124244 0)
(-0.0829548 0.00901654 0)
(-0.0847997 0.0054107 0)
(-0.0857389 0.00167944 0)
(-0.0857526 -0.00210274 0)
(-0.0848383 -0.00585953 0)
(-0.0830108 -0.00951319 0)
(-0.0803022 -0.012985 0)
(-0.0767628 -0.0161958 0)
(-0.0724601 -0.0190675 0)
(-0.0674791 -0.0215239 0)
(-0.0619215 -0.0234926 0)
(-0.0559046 -0.0249076 0)
(-0.0495602 -0.0257113 0)
(-0.0430321 -0.0258583 0)
(-0.0364737 -0.0253185 0)
(-0.0300439 -0.0240815 0)
(-0.0239032 -0.0221612 0)
(-0.0182077 -0.0196015 0)
(-0.0131026 -0.0164817 0)
(-0.00871387 -0.0129231 0)
(-0.00513787 -0.00909578 0)
(-0.00242548 -0.00522394 0)
(-0.000573809 -0.0015883 0)
(-0.000720791 0.00242685 0)
(-0.0030109 0.00748487 0)
(-0.00628907 0.012536 0)
(-0.0105263 0.0173123 0)
(-0.0156392 0.021604 0)
(-0.021502 0.025257 0)
(-0.0279649 0.0281671 0)
(-0.0348645 0.0302728 0)
(-0.0420311 0.0315477 0)
(-0.0492948 0.0319937 0)
(-0.0564899 0.0316349 0)
(-0.0634584 0.0305127 0)
(-0.0700529 0.0286814 0)
(-0.0761381 0.0262049 0)
(-0.0815932 0.0231546 0)
(-0.0863122 0.0196071 0)
(-0.0902053 0.0156432 0)
(-0.0931992 0.0113472 0)
(-0.0952376 0.00680613 0)
(-0.0962816 0.00210958 0)
(-0.0963099 -0.0026504 0)
(-0.0953193 -0.00737964 0)
(-0.0933248 -0.0119821 0)
(-0.0903599 -0.0163606 0)
(-0.0864768 -0.0204174 0)
(-0.0817464 -0.0240557 0)
(-0.0762582 -0.0271809 0)
(-0.0701199 -0.0297034 0)
(-0.0634563 -0.0315407 0)
(-0.0564083 -0.0326206 0)
(-0.049131 -0.0328853 0)
(-0.0417906 -0.0322956 0)
(-0.0345614 -0.0308352 0)
(-0.0276211 -0.0285165 0)
(-0.0211453 -0.0253861 0)
(-0.015301 -0.0215305 0)
(-0.0102371 -0.017082 0)
(-0.00607422 -0.0122238 0)
(-0.00288545 -0.00719369 0)
(-0.000685356 -0.00228235 0)
(-0.000831124 0.00326451 0)
(-0.00346256 0.00981015 0)
(-0.00720518 0.0161632 0)
(-0.0120126 0.0220565 0)
(-0.0177787 0.0272782 0)
(-0.0243539 0.0316725 0)
(-0.0315655 0.0351343 0)
(-0.0392292 0.0376036 0)
(-0.0471571 0.0390578 0)
(-0.0551637 0.0395054 0)
(-0.0630701 0.0389794 0)
(-0.0707069 0.0375321 0)
(-0.0779177 0.0352306 0)
(-0.0845596 0.0321529 0)
(-0.0905055 0.0283852 0)
(-0.0956446 0.0240201 0)
(-0.0998832 0.0191549 0)
(-0.103145 0.0138906 0)
(-0.105371 0.00833166 0)
(-0.10652 0.00258536 0)
(-0.10657 -0.00323813 0)
(-0.105516 -0.00902611 0)
(-0.103374 -0.0146636 0)
(-0.100178 -0.020034 0)
(-0.095979 -0.02502 0)
(-0.0908516 -0.0295051 0)
(-0.0848877 -0.0333751 0)
(-0.0781994 -0.0365214 0)
(-0.0709176 -0.0388431 0)
(-0.0631912 -0.0402518 0)
(-0.0551851 -0.040675 0)
(-0.0470782 -0.0400616 0)
(-0.0390599 -0.0383871 0)
(-0.0313258 -0.0356594 0)
(-0.0240721 -0.0319245 0)
(-0.0174887 -0.0272728 0)
(-0.0117498 -0.0218439 0)
(-0.00700119 -0.0158309 0)
(-0.00333913 -0.00948167 0)
(-0.000795114 -0.00309542 0)
(-0.000939106 0.00421626 0)
(-0.00390497 0.0124386 0)
(-0.00810447 0.0202441 0)
(-0.0134744 0.0273682 0)
(-0.0198863 0.0336008 0)
(-0.0271657 0.038788 0)
(-0.0351164 0.0428282 0)
(-0.0435326 0.0456665 0)
(-0.0522076 0.0472879 0)
(-0.06094 0.0477105 0)
(-0.0695379 0.0469789 0)
(-0.0778217 0.0451587 0)
(-0.0856264 0.0423316 0)
(-0.0928028 0.0385911 0)
(-0.0992189 0.0340399 0)
(-0.10476 0.0287874 0)
(-0.10933 0.0229479 0)
(-0.11285 0.0166401 0)
(-0.115259 0.00998592 0)
(-0.116516 0.00311093 0)
(-0.116596 -0.00385636 0)
(-0.115493 -0.0107844 0)
(-0.113223 -0.0175387 0)
(-0.109818 -0.023983 0)
(-0.10533 -0.0299795 0)
(-0.0998339 -0.035391 0)
(-0.0934229 -0.0400825 0)
(-0.086212 -0.0439246 0)
(-0.0783367 -0.0467966 0)
(-0.0699525 -0.0485909 0)
(-0.0612337 -0.0492181 0)
(-0.0523713 -0.0486122 0)
(-0.0435698 -0.0467372 0)
(-0.0350432 -0.0435929 0)
(-0.0270097 -0.0392216 0)
(-0.0196835 -0.0337135 0)
(-0.0132655 -0.0272124 0)
(-0.00792818 -0.0199182 0)
(-0.00379173 -0.0120871 0)
(-0.000904422 -0.0040263 0)
(-0.00104585 0.00527999 0)
(-0.00434241 0.0153657 0)
(-0.00899453 0.0247733 0)
(-0.0149225 0.0332418 0)
(-0.0219751 0.0405657 0)
(-0.0299529 0.0465965 0)
(-0.038635 0.05124 0)
(-0.0477935 0.0544506 0)
(-0.0572026 0.0562246 0)
(-0.0666452 0.0565931 0)
(-0.0759165 0.0556155 0)
(-0.0848271 0.0533732 0)
(-0.0932045 0.0499647 0)
(-0.100895 0.0455008 0)
(-0.107761 0.0401018 0)
(-0.113688 0.0338949 0)
(-0.118576 0.0270122 0)
(-0.122346 0.0195902 0)
(-0.124935 0.0117689 0)
(-0.126302 0.00369174 0)
(-0.126421 -0.00449425 0)
(-0.125284 -0.0126386 0)
(-0.122906 -0.0205876 0)
(-0.119316 -0.0281846 0)
(-0.114566 -0.035271 0)
(-0.10873 -0.041688 0)
(-0.1019 -0.0472788 0)
(-0.0941942 -0.0518914 0)
(-0.0857498 -0.055383 0)
(-0.0767281 -0.0576245 0)
(-0.0673117 -0.0585063 0)
(-0.0577031 -0.0579444 0)
(-0.0481221 -0.0558872 0)
(-0.0388019 -0.0523226 0)
(-0.0299832 -0.047285 0)
(-0.0219065 -0.0408611 0)
(-0.0148007 -0.033195 0)
(-0.00886667 -0.024491 0)
(-0.00424955 -0.0150126 0)
(-0.00101489 -0.00507551 0)
(-0.00115253 0.00645484 0)
(-0.00477941 0.0185896 0)
(-0.00988348 0.0297482 0)
(-0.0163683 0.039674 0)
(-0.0240592 0.0481683 0)
(-0.032731 0.0550917 0)
(-0.0421378 0.0603612 0)
(-0.0520288 0.0639446 0)
(-0.0621589 0.0658537 0)
(-0.0722949 0.0661365 0)
(-0.08222 0.0648703 0)
(-0.0917355 0.0621554 0)
(-0.100663 0.0581093 0)
(-0.108844 0.0528621 0)
(-0.11614 0.0465532 0)
(-0.122433 0.0393282 0)
(-0.127625 0.0313376 0)
(-0.131635 0.022736 0)
(-0.134402 0.0136811 0)
(-0.135881 0.0043342 0)
(-0.136048 -0.0051396 0)
(-0.134893 -0.0145714 0)
(-0.132427 -0.0237881 0)
(-0.128679 -0.0326131 0)
(-0.123697 -0.0408668 0)
(-0.117552 -0.048368 0)
(-0.110337 -0.0549367 0)
(-0.102166 -0.060397 0)
(-0.0931794 -0.0645816 0)
(-0.083543 -0.0673371 0)
(-0.0734461 -0.06853 0)
(-0.063102 -0.0680545 0)
(-0.0527456 -0.0658391 0)
(-0.0426295 -0.0618554 0)
(-0.0330183 -0.0561251 0)
(-0.0241799 -0.0487274 0)
(-0.0163729 -0.0398033 0)
(-0.00982886 -0.0295592 0)
(-0.00471926 -0.0182646 0)
(-0.00112824 -0.0062454 0)
(-0.00126029 0.00774122 0)
(-0.00522046 0.0221108 0)
(-0.0107793 0.0351689 0)
(-0.0178228 0.0466639 0)
(-0.0261521 0.056406 0)
(-0.035515 0.0642682 0)
(-0.0456396 0.0701831 0)
(-0.056252 0.0741363 0)
(-0.0670873 0.0761593 0)
(-0.0778968 0.0763212 0)
(-0.088452 0.0747212 0)
(-0.0985462 0.0714815 0)
(-0.107996 0.0667414 0)
(-0.11664 0.0606522 0)
(-0.124339 0.0533734 0)
(-0.130976 0.0450703 0)
(-0.136453 0.0359121 0)
(-0.140692 0.0260711 0)
(-0.14363 0.0157227 0)
(-0.145225 0.00504534 0)
(-0.145449 -0.00577865 0)
(-0.144292 -0.0165625 0)
(-0.141763 -0.0271148 0)
(-0.137885 -0.0372389 0)
(-0.132706 -0.0467343 0)
(-0.126289 -0.0553972 0)
(-0.118725 -0.0630234 0)
(-0.110126 -0.0694112 0)
(-0.100631 -0.0743665 0)
(-0.0904091 -0.0777083 0)
(-0.079654 -0.0792757 0)
(-0.0685891 -0.0789362 0)
(-0.057464 -0.0765937 0)
(-0.0465508 -0.0721982 0)
(-0.0361388 -0.065754 0)
(-0.0265247 -0.0573274 0)
(-0.0179995 -0.0470533 0)
(-0.0108269 -0.0351369 0)
(-0.00520749 -0.0218537 0)
(-0.00124615 -0.0075402 0)
(-0.00137026 0.00914074 0)
(-0.00566984 0.0259326 0)
(-0.0116898 0.0410385 0)
(-0.0192967 0.0542129 0)
(-0.0282661 0.0652772 0)
(-0.0383175 0.0741206 0)
(-0.049152 0.0806955 0)
(-0.0604717 0.0850103 0)
(-0.0719921 0.0871212 0)
(-0.0834495 0.087123 0)
(-0.0946045 0.0851408 0)
(-0.105244 0.0813222 0)
(-0.11518 0.0758312 0)
(-0.124252 0.0688421 0)
(-0.132321 0.0605365 0)
(-0.139272 0.0510997 0)
(-0.145011 0.0407199 0)
(-0.14946 0.029587 0)
(-0.152561 0.0178929 0)
(-0.15427 0.00583236 0)
(-0.154561 -0.00639605 0)
(-0.153421 -0.0185891 0)
(-0.150854 -0.0305376 0)
(-0.146882 -0.0420264 0)
(-0.141544 -0.0528341 0)
(-0.1349 -0.0627342 0)
(-0.127033 -0.0714974 0)
(-0.118052 -0.0788948 0)
(-0.108092 -0.084703 0)
(-0.097322 -0.0887099 0)
(-0.0859392 -0.090723 0)
(-0.0741753 -0.0905779 0)
(-0.0622935 -0.0881484 0)
(-0.0505852 -0.0833569 0)
(-0.0393651 -0.0761842 0)
(-0.0289605 -0.0666789 0)
(-0.0196964 -0.0549646 0)
(-0.0118722 -0.0412431 0)
(-0.00572066 -0.025794 0)
(-0.00137028 -0.00896589 0)
(-0.00148353 0.0106561 0)
(-0.00613171 0.0300602 0)
(-0.0126221 0.0473625 0)
(-0.0207998 0.0623242 0)
(-0.0304121 0.0747809 0)
(-0.0411488 0.0846422 0)
(-0.0526825 0.0918854 0)
(-0.0646908 0.0965472 0)
(-0.0768698 0.0987137 0)
(-0.0889412 0.0985106 0)
(-0.100656 0.0960935 0)
(-0.111796 0.0916395 0)
(-0.122173 0.08534 0)
(-0.131626 0.077395 0)
(-0.140022 0.0680091 0)
(-0.147249 0.0573885 0)
(-0.153216 0.0457402 0)
(-0.157852 0.0332709 0)
(-0.161101 0.0201884 0)
(-0.162922 0.00670214 0)
(-0.163286 -0.00697482 0)
(-0.162182 -0.0206243 0)
(-0.159608 -0.0340212 0)
(-0.15558 -0.0469327 0)
(-0.150131 -0.0591176 0)
(-0.143313 -0.070327 0)
(-0.135201 -0.080306 0)
(-0.125895 -0.088797 0)
(-0.115526 -0.0955446 0)
(-0.104258 -0.100302 0)
(-0.0922898 -0.102841 0)
(-0.0798591 -0.10296 0)
(-0.0672409 -0.100494 0)
(-0.0547455 -0.0953334 0)
(-0.0427132 -0.0874274 0)
(-0.0315035 -0.0768006 0)
(-0.0214781 -0.0635601 0)
(-0.0129755 -0.0479002 0)
(-0.00626483 -0.0301031 0)
(-0.00150222 -0.0105302 0)
(-0.00160117 0.0122912 0)
(-0.00661015 0.0345012 0)
(-0.0135833 0.0541484 0)
(-0.022341 0.0710022 0)
(-0.0325997 0.084916 0)
(-0.0440165 0.0958244 0)
(-0.0562344 0.103736 0)
(-0.068906 0.108721 0)
(-0.0817078 0.110902 0)
(-0.0943482 0.110443 0)
(-0.106571 0.107533 0)
(-0.118154 0.102384 0)
(-0.128911 0.0952183 0)
(-0.138687 0.0862631 0)
(-0.147352 0.0757478 0)
(-0.154803 0.0638999 0)
(-0.160956 0.0509447 0)
(-0.165746 0.0371052 0)
(-0.169122 0.022603 0)
(-0.171045 0.00766063 0)
(-0.17149 -0.0074965 0)
(-0.170441 -0.0226374 0)
(-0.167893 -0.0375234 0)
(-0.163855 -0.0519059 0)
(-0.158352 -0.0655252 0)
(-0.151424 -0.0781107 0)
(-0.143136 -0.089382 0)
(-0.133578 -0.0990514 0)
(-0.122871 -0.106829 0)
(-0.111171 -0.112431 0)
(-0.0986753 -0.115586 0)
(-0.0856238 -0.116049 0)
(-0.0723015 -0.113613 0)
(-0.0590361 -0.108123 0)
(-0.0461934 -0.0994919 0)
(-0.0341666 -0.0877109 0)
(-0.0233571 -0.0728642 0)
(-0.0141467 -0.0551339 0)
(-0.0068457 -0.0348019 0)
(-0.00164346 -0.0122423 0)
(-0.00172431 0.0140508 0)
(-0.00710942 0.0392652 0)
(-0.0145804 0.0614056 0)
(-0.0239291 0.0802521 0)
(-0.0348368 0.0956798 0)
(-0.0469256 0.107655 0)
(-0.0598066 0.116223 0)
(-0.0731067 0.121496 0)
(-0.0864836 0.123642 0)
(-0.0996338 0.122866 0)
(-0.112296 0.119399 0)
(-0.124248 0.113493 0)
(-0.135308 0.105402 0)
(-0.145328 0.0953849 0)
(-0.15419 0.0836965 0)
(-0.161798 0.0705859 0)
(-0.168081 0.0562962 0)
(-0.172981 0.0410649 0)
(-0.176454 0.0251259 0)
(-0.178467 0.0087121 0)
(-0.178994 -0.00794138 0)
(-0.17802 -0.0245937 0)
(-0.175534 -0.0409952 0)
(-0.171539 -0.056884 0)
(-0.166047 -0.0719844 0)
(-0.159087 -0.0860053 0)
(-0.15071 -0.0986409 0)
(-0.14099 -0.109573 0)
(-0.130034 -0.118476 0)
(-0.117989 -0.125023 0)
(-0.105043 -0.128896 0)
(-0.0914349 -0.1298 0)
(-0.0774566 -0.127474 0)
(-0.063451 -0.121713 0)
(-0.049809 -0.11238 0)
(-0.0369584 -0.0994255 0)
(-0.0253436 -0.0829018 0)
(-0.0153944 -0.0629721 0)
(-0.00746866 -0.039914 0)
(-0.00179547 -0.0141131 0)
(-0.00185421 0.0159411 0)
(-0.0076341 0.0443639 0)
(-0.015621 0.0691454 0)
(-0.0255727 0.090079 0)
(-0.0371308 0.107068 0)
(-0.0498783 0.120115 0)
(-0.0633927 0.129314 0)
(-0.0772745 0.134828 0)
(-0.0911635 0.136874 0)
(-0.104747 0.13571 0)
(-0.11776 0.131616 0)
(-0.129986 0.124884 0)
(-0.141251 0.115809 0)
(-0.151418 0.104682 0)
(-0.160383 0.0917839 0)
(-0.168065 0.0773853 0)
(-0.174405 0.0617462 0)
(-0.179358 0.0451168 0)
(-0.182888 0.0277407 0)
(-0.184968 0.00985831 0)
(-0.185577 -0.00828898 0)
(-0.184697 -0.026454 0)
(-0.182313 -0.0443795 0)
(-0.178419 -0.0617939 0)
(-0.173015 -0.078408 0)
(-0.166115 -0.0939125 0)
(-0.157752 -0.107978 0)
(-0.14798 -0.120255 0)
(-0.136889 -0.130379 0)
(-0.124608 -0.137979 0)
(-0.111313 -0.142685 0)
(-0.0972362 -0.144141 0)
(-0.0826709 -0.142028 0)
(-0.0679723 -0.136074 0)
(-0.0535551 -0.126084 0)
(-0.0398825 -0.111955 0)
(-0.0274451 -0.0936964 0)
(-0.0167262 -0.0714439 0)
(-0.00813876 -0.0454651 0)
(-0.00195964 -0.0161548 0)
(-0.0019923 0.0179694 0)
(-0.00818946 0.049811 0)
(-0.0167134 0.0773801 0)
(-0.0272808 0.100487 0)
(-0.0394878 0.11907 0)
(-0.0528741 0.133181 0)
(-0.066981 0.142967 0)
(-0.0813822 0.148654 0)
(-0.0957013 0.150522 0)
(-0.109618 0.148887 0)
(-0.122871 0.144084 0)
(-0.135251 0.136456 0)
(-0.146597 0.126339 0)
(-0.15679 0.114058 0)
(-0.165743 0.099921 0)
(-0.173394 0.0842211 0)
(-0.1797 0.067233 0)
(-0.184632 0.0492172 0)
(-0.188167 0.030424 0)
(-0.190284 0.0110974 0)
(-0.190968 -0.00851868 0)
(-0.190199 -0.0281751 0)
(-0.18796 -0.0476113 0)
(-0.184233 -0.0665501 0)
(-0.179005 -0.0846927 0)
(-0.172273 -0.101715 0)
(-0.164045 -0.117264 0)
(-0.154356 -0.130963 0)
(-0.143269 -0.142407 0)
(-0.13089 -0.151175 0)
(-0.117376 -0.15684 0)
(-0.102946 -0.15898 0)
(-0.0878891 -0.157202 0)
(-0.0725675 -0.15116 0)
(-0.0574171 -0.140584 0)
(-0.0429366 -0.125302 0)
(-0.0296661 -0.105268 0)
(-0.0181485 -0.0805784 0)
(-0.00886077 -0.0514827 0)
(-0.00213737 -0.018381 0)
(-0.0021403 0.0201447 0)
(-0.00878173 0.0556229 0)
(-0.0178669 0.0861238 0)
(-0.0290633 0.11148 0)
(-0.0419138 0.131674 0)
(-0.0559094 0.146816 0)
(-0.070553 0.157123 0)
(-0.0853918 0.162896 0)
(-0.100035 0.164487 0)
(-0.11416 0.162283 0)
(-0.127512 0.156683 0)
(-0.139896 0.148082 0)
(-0.151171 0.136864 0)
(-0.16124 0.12339 0)
(-0.17004 0.107998 0)
(-0.177531 0.0909979 0)
(-0.183693 0.0726795 0)
(-0.188514 0.0533105 0)
(-0.191986 0.0331437 0)
(-0.1941 0.0124228 0)
(-0.194845 -0.00861061 0)
(-0.194203 -0.0297103 0)
(-0.192152 -0.0506176 0)
(-0.188665 -0.0710547 0)
(-0.183712 -0.0907179 0)
(-0.17727 -0.109272 0)
(-0.169323 -0.126346 0)
(-0.159875 -0.141534 0)
(-0.148961 -0.154393 0)
(-0.136655 -0.16445 0)
(-0.123086 -0.171214 0)
(-0.108453 -0.174189 0)
(-0.0930319 -0.172897 0)
(-0.077186 -0.166901 0)
(-0.0613679 -0.155839 0)
(-0.046111 -0.139456 0)
(-0.0320074 -0.11763 0)
(-0.0196664 -0.0904031 0)
(-0.00963917 -0.0579956 0)
(-0.00232999 -0.0208066 0)
(-0.0023003 0.0224779 0)
(-0.00941849 0.0618188 0)
(-0.019093 0.0953913 0)
(-0.0309312 0.123058 0)
(-0.0444135 0.144857 0)
(-0.0589766 0.160972 0)
(-0.0740823 0.171708 0)
(-0.089252 0.177452 0)
(-0.104085 0.178647 0)
(-0.11826 0.175759 0)
(-0.131537 0.169259 0)
(-0.143742 0.159606 0)
(-0.154761 0.147231 0)
(-0.164525 0.132534 0)
(-0.173 0.11588 0)
(-0.180178 0.0976 0)
(-0.186061 0.0779917 0)
(-0.190661 0.0573272 0)
(-0.193988 0.0358577 0)
(-0.196046 0.0138218 0)
(-0.196831 -0.00854685 0)
(-0.196328 -0.0310104 0)
(-0.19451 -0.0533182 0)
(-0.19134 -0.0751975 0)
(-0.186772 -0.0963457 0)
(-0.180759 -0.116422 0)
(-0.173258 -0.135042 0)
(-0.164239 -0.151774 0)
(-0.153698 -0.166136 0)
(-0.141672 -0.177605 0)
(-0.128254 -0.18562 0)
(-0.113609 -0.189601 0)
(-0.0979904 -0.188973 0)
(-0.0817552 -0.183193 0)
(-0.0653656 -0.171787 0)
(-0.0493869 -0.15439 0)
(-0.0344651 -0.130786 0)
(-0.0212831 -0.100942 0)
(-0.0104781 -0.0650329 0)
(-0.00253886 -0.0234478 0)
(-0.0024749 0.0249822 0)
(-0.010109 0.0684212 0)
(-0.0204051 0.105199 0)
(-0.0328965 0.135217 0)
(-0.0469904 0.158586 0)
(-0.0620624 0.175584 0)
(-0.077531 0.18662 0)
(-0.0928943 0.192192 0)
(-0.107746 0.192843 0)
(-0.121775 0.189138 0)
(-0.134763 0.181628 0)
(-0.146567 0.170838 0)
(-0.157106 0.157253 0)
(-0.16635 0.141313 0)
(-0.174301 0.12341 0)
(-0.180983 0.103889 0)
(-0.18643 0.0830564 0)
(-0.190678 0.0611826 0)
(-0.19376 0.0385127 0)
(-0.195696 0.0152741 0)
(-0.196491 -0.00831284 0)
(-0.196133 -0.0320253 0)
(-0.194592 -0.0556269 0)
(-0.191821 -0.0788572 0)
(-0.187758 -0.101421 0)
(-0.182331 -0.12298 0)
(-0.175463 -0.14314 0)
(-0.167087 -0.16145 0)
(-0.157156 -0.177394 0)
(-0.145658 -0.190396 0)
(-0.132639 -0.199822 0)
(-0.118219 -0.205003 0)
(-0.102619 -0.20525 0)
(-0.0861747 -0.199896 0)
(-0.0693488 -0.188331 0)
(-0.0527334 -0.170054 0)
(-0.0370291 -0.144726 0)
(-0.0229994 -0.112213 0)
(-0.0113811 -0.0726232 0)
(-0.00276525 -0.0263222 0)
(-0.00266727 0.0276739 0)
(-0.0108645 0.0754565 0)
(-0.0218187 0.115562 0)
(-0.0349722 0.147948 0)
(-0.0496449 0.172816 0)
(-0.0651447 0.190564 0)
(-0.0808457 0.201732 0)
(-0.0962262 0.206949 0)
(-0.110882 0.206883 0)
(-0.124524 0.202206 0)
(-0.136964 0.193563 0)
(-0.1481 0.181551 0)
(-0.157898 0.166711 0)
(-0.16637 0.149522 0)
(-0.173561 0.1304 0)
(-0.179536 0.109704 0)
(-0.184364 0.0877405 0)
(-0.188112 0.0647759 0)
(-0.190833 0.0410424 0)
(-0.192567 0.0167506 0)
(-0.193331 -0.00789913 0)
(-0.193118 -0.0327055 0)
(-0.191896 -0.0574538 0)
(-0.189609 -0.0819032 0)
(-0.186178 -0.105775 0)
(-0.181503 -0.128738 0)
(-0.175477 -0.150401 0)
(-0.167988 -0.170297 0)
(-0.158938 -0.187883 0)
(-0.148259 -0.20253 0)
(-0.135938 -0.213534 0)
(-0.122038 -0.220125 0)
(-0.106728 -0.221491 0)
(-0.0903088 -0.216818 0)
(-0.0732309 -0.205333 0)
(-0.0561038 -0.186368 0)
(-0.0396809 -0.159421 0)
(-0.0248128 -0.124226 0)
(-0.0123511 -0.0807938 0)
(-0.00301035 -0.0294484 0)
(-0.00288129 0.030573 0)
(-0.0116986 0.0829556 0)
(-0.0233518 0.126498 0)
(-0.0371701 0.161231 0)
(-0.0523712 0.187479 0)
(-0.0681873 0.205793 0)
(-0.0839491 0.216876 0)
(-0.0991224 0.221515 0)
(-0.113316 0.220525 0)
(-0.126275 0.214702 0)
(-0.137856 0.204794 0)
(-0.148011 0.191475 0)
(-0.156759 0.175345 0)
(-0.164169 0.156919 0)
(-0.170335 0.136634 0)
(-0.175366 0.114857 0)
(-0.179369 0.0918906 0)
(-0.182445 0.0679894 0)
(-0.184674 0.0433672 0)
(-0.186115 0.0182118 0)
(-0.186797 -0.00730332 0)
(-0.186722 -0.0330053 0)
(-0.185856 -0.0587084 0)
(-0.184137 -0.0841997 0)
(-0.181467 -0.109225 0)
(-0.177725 -0.133472 0)
(-0.172765 -0.156557 0)
(-0.166431 -0.178013 0)
(-0.158569 -0.197271 0)
(-0.149047 -0.213662 0)
(-0.137778 -0.226407 0)
(-0.124752 -0.234635 0)
(-0.110069 -0.237396 0)
(-0.0939756 -0.233708 0)
(-0.0768913 -0.222604 0)
(-0.0594294 -0.203208 0)
(-0.0423898 -0.174815 0)
(-0.0267153 -0.136976 0)
(-0.0133891 -0.0895685 0)
(-0.00327503 -0.0328465 0)
(-0.00312147 0.0337043 0)
(-0.0126268 0.0909544 0)
(-0.025023 0.138019 0)
(-0.039499 0.175033 0)
(-0.0551515 0.202483 0)
(-0.0711312 0.221115 0)
(-0.0867292 0.231836 0)
(-0.10141 0.235626 0)
(-0.114812 0.233471 0)
(-0.12673 0.22631 0)
(-0.137083 0.214999 0)
(-0.145891 0.200298 0)
(-0.15324 0.182859 0)
(-0.15926 0.163232 0)
(-0.164103 0.14187 0)
(-0.167927 0.119139 0)
(-0.170881 0.0953338 0)
(-0.173099 0.0706891 0)
(-0.174691 0.0453941 0)
(-0.175734 0.0196069 0)
(-0.176274 -0.00653205 0)
(-0.176321 -0.0328853 0)
(-0.175842 -0.0593034 0)
(-0.17477 -0.0856098 0)
(-0.172994 -0.111583 0)
(-0.170367 -0.136942 0)
(-0.166711 -0.161322 0)
(-0.161822 -0.184263 0)
(-0.155487 -0.205188 0)
(-0.147501 -0.223392 0)
(-0.137693 -0.23803 0)
(-0.125963 -0.248127 0)
(-0.112321 -0.252589 0)
(-0.0969328 -0.25024 0)
(-0.0801639 -0.239889 0)
(-0.0626105 -0.220403 0)
(-0.0451073 -0.190816 0)
(-0.0286909 -0.150441 0)
(-0.0144937 -0.0989661 0)
(-0.00355964 -0.0365375 0)
(-0.00339291 0.0370983 0)
(-0.0136662 0.0994931 0)
(-0.0268496 0.150133 0)
(-0.0419578 0.189298 0)
(-0.0579463 0.217694 0)
(-0.0738803 0.236319 0)
(-0.0890206 0.246333 0)
(-0.102849 0.248952 0)
(-0.115054 0.245359 0)
(-0.125502 0.236651 0)
(-0.134197 0.223803 0)
(-0.141239 0.207656 0)
(-0.146795 0.188915 0)
(-0.151065 0.168156 0)
(-0.154262 0.145838 0)
(-0.156597 0.12232 0)
(-0.158263 0.0978805 0)
(-0.159427 0.0727269 0)
(-0.160226 0.0470172 0)
(-0.16076 0.0208735 0)
(-0.16109 -0.005603 0)
(-0.161234 -0.0323164 0)
(-0.161165 -0.0591606 0)
(-0.160811 -0.0860027 0)
(-0.160053 -0.112665 0)
(-0.158724 -0.138905 0)
(-0.156613 -0.164392 0)
(-0.153472 -0.188689 0)
(-0.149028 -0.211223 0)
(-0.142996 -0.231268 0)
(-0.135113 -0.247925 0)
(-0.125172 -0.26012 0)
(-0.113067 -0.266606 0)
(-0.0988573 -0.266002 0)
(-0.0828192 -0.25685 0)
(-0.065503 -0.237709 0)
(-0.047758 -0.207285 0)
(-0.0307101 -0.164571 0)
(-0.0156585 -0.108996 0)
(-0.00386337 -0.0405432 0)
(-0.0037008 0.0407919 0)
(-0.0148332 0.108615 0)
(-0.0288424 0.162835 0)
(-0.0445263 0.203937 0)
(-0.0606782 0.232924 0)
(-0.0762791 0.251123 0)
(-0.0905779 0.260011 0)
(-0.1031 0.261082 0)
(-0.113614 0.255749 0)
(-0.122087 0.24528 0)
(-0.128626 0.230771 0)
(-0.133433 0.213143 0)
(-0.136764 0.193141 0)
(-0.138898 0.171357 0)
(-0.140112 0.148248 0)
(-0.140669 0.124156 0)
(-0.140803 0.0993294 0)
(-0.140714 0.0739445 0)
(-0.140565 0.0481205 0)
(-0.140475 0.0219379 0)
(-0.14052 -0.00454643 0)
(-0.140728 -0.0312834 0)
(-0.14108 -0.0582159 0)
(-0.141504 -0.085262 0)
(-0.141875 -0.112295 0)
(-0.142013 -0.139124 0)
(-0.141681 -0.165466 0)
(-0.140593 -0.19092 0)
(-0.138415 -0.214938 0)
(-0.134786 -0.236793 0)
(-0.129342 -0.255549 0)
(-0.121751 -0.270045 0)
(-0.111771 -0.278889 0)
(-0.0993174 -0.280475 0)
(-0.0845388 -0.273048 0)
(-0.0678977 -0.254798 0)
(-0.050225 -0.224015 0)
(-0.0327218 -0.179278 0)
(-0.0168683 -0.119656 0)
(-0.00418329 -0.044886 0)
(-0.00404948 0.0448298 0)
(-0.0161398 0.118365 0)
(-0.0309953 0.176095 0)
(-0.0471464 0.218807 0)
(-0.0632044 0.247908 0)
(-0.078078 0.26515 0)
(-0.0910346 0.272408 0)
(-0.101682 0.271507 0)
(-0.109911 0.264113 0)
(-0.115819 0.251676 0)
(-0.119643 0.235413 0)
(-0.121703 0.216307 0)
(-0.122354 0.195134 0)
(-0.121954 0.172486 0)
(-0.120846 0.148802 0)
(-0.119339 0.124394 0)
(-0.117707 0.0994754 0)
(-0.116176 0.0741795 0)
(-0.114931 0.048582 0)
(-0.114106 0.0227172 0)
(-0.113791 -0.00340608 0)
(-0.114026 -0.029789 0)
(-0.114797 -0.0564275 0)
(-0.11604 -0.0832954 0)
(-0.11763 -0.110325 0)
(-0.11938 -0.137386 0)
(-0.12104 -0.164256 0)
(-0.12229 -0.19059 0)
(-0.122751 -0.215885 0)
(-0.121985 -0.239437 0)
(-0.119527 -0.260302 0)
(-0.114911 -0.277256 0)
(-0.107735 -0.288771 0)
(-0.097734 -0.29302 0)
(-0.0848791 -0.287918 0)
(-0.0694897 -0.271223 0)
(-0.0523274 -0.240714 0)
(-0.034639 -0.194423 0)
(-0.0180925 -0.130921 0)
(-0.00451257 -0.0495874 0)
(-0.00444038 0.0492643 0)
(-0.0175853 0.128779 0)
(-0.0332677 0.189843 0)
(-0.0496912 0.233685 0)
(-0.0652732 0.262267 0)
(-0.0788785 0.277897 0)
(-0.0898432 0.282938 0)
(-0.0979144 0.2796 0)
(-0.103151 0.269825 0)
(-0.105822 0.255247 0)
(-0.10632 0.237183 0)
(-0.105094 0.216666 0)
(-0.102602 0.194476 0)
(-0.0992824 0.171187 0)
(-0.095534 0.147203 0)
(-0.0917079 0.122793 0)
(-0.0881036 0.0981218 0)
(-0.0849688 0.0732755 0)
(-0.0825002 0.0482807 0)
(-0.0808448 0.0231229 0)
(-0.0801012 -0.00223872 0)
(-0.0803183 -0.0278568 0)
(-0.0814944 -0.0537817 0)
(-0.083573 -0.0800459 0)
(-0.0864383 -0.106645 0)
(-0.0899085 -0.133518 0)
(-0.0937293 -0.160513 0)
(-0.0975671 -0.187362 0)
(-0.101006 -0.213628 0)
(-0.10355 -0.238664 0)
(-0.104636 -0.261548 0)
(-0.103666 -0.281031 0)
(-0.100057 -0.295482 0)
(-0.0933275 -0.302863 0)
(-0.0832174 -0.300745 0)
(-0.06983 -0.286397 0)
(-0.0537836 -0.256967 0)
(-0.0363157 -0.209785 0)
(-0.0192733 -0.142734 0)
(-0.00483732 -0.0546661 0)
(-0.00486786 0.0541539 0)
(-0.0191401 0.139871 0)
(-0.0355509 0.203934 0)