/*--------------------------------*- C++ -*----------------------------------*\
| =========                 |                                                 |
| \\      /  F ield         | OpenFOAM: The Open Source CFD Toolbox           |
|  \\    /   O peration     | Version:  4.1                                   |
|   \\  /    A nd           | Web:      www.OpenFOAM.org                      |
|    \\/     M anipulation  |                                                 |
\*---------------------------------------------------------------------------*/
FoamFile
{
    version     2.0;
    format      ascii;
    class       volVectorField;
    location    "0.0045";
    object      U;
}
// * * * * * * * * * * * * * * * * * * * * * * * * * * * * * * * * * * * * * //

dimensions      [0 1 -1 0 0 0 0];

internalField   nonuniform List<vector> 
6400
(
(-6.2221e-05 6.18419e-05 0)
(-0.000118048 0.000122158 0)
(-0.000151386 0.000137099 0)
(-0.000187969 0.000143417 0)
(-0.000237348 0.000149681 0)
(-0.000300664 0.000156374 0)
(-0.000376136 0.000162568 0)
(-0.000461348 0.000167585 0)
(-0.000553985 0.000171148 0)
(-0.000652019 0.000173234 0)
(-0.000753727 0.000173953 0)
(-0.000857671 0.000173466 0)
(-0.000962668 0.000171943 0)
(-0.00106775 0.000169549 0)
(-0.00117214 0.000166427 0)
(-0.0012752 0.000162699 0)
(-0.0013764 0.000158465 0)
(-0.00147533 0.000153807 0)
(-0.00157164 0.000148791 0)
(-0.00166504 0.000143467 0)
(-0.00175527 0.000137875 0)
(-0.00184211 0.000132048 0)
(-0.00192539 0.000126012 0)
(-0.00200491 0.000119785 0)
(-0.00208054 0.000113386 0)
(-0.00215212 0.000106828 0)
(-0.00221953 0.000100125 0)
(-0.00228266 9.32866e-05 0)
(-0.00234137 8.63247e-05 0)
(-0.00239559 7.92491e-05 0)
(-0.00244521 7.20693e-05 0)
(-0.00249015 6.4795e-05 0)
(-0.00253033 5.74357e-05 0)
(-0.00256568 5.00008e-05 0)
(-0.00259614 4.24996e-05 0)
(-0.00262167 3.49417e-05 0)
(-0.00264221 2.73365e-05 0)
(-0.00265774 1.96936e-05 0)
(-0.00266821 1.20224e-05 0)
(-0.00267362 4.33259e-06 0)
(-0.00267396 -3.36627e-06 0)
(-0.00266921 -1.10645e-05 0)
(-0.00265939 -1.87525e-05 0)
(-0.00264451 -2.64205e-05 0)
(-0.00262459 -3.40587e-05 0)
(-0.00259966 -4.16575e-05 0)
(-0.00256976 -4.92069e-05 0)
(-0.00253494 -5.66971e-05 0)
(-0.00249525 -6.41183e-05 0)
(-0.00245076 -7.14605e-05 0)
(-0.00240154 -7.87136e-05 0)
(-0.00234767 -8.58675e-05 0)
(-0.00228924 -9.29117e-05 0)
(-0.00222636 -9.98353e-05 0)
(-0.00215912 -0.000106627 0)
(-0.00208765 -0.000113275 0)
(-0.00201207 -0.000119765 0)
(-0.00193253 -0.000126082 0)
(-0.00184919 -0.000132208 0)
(-0.00176221 -0.000138122 0)
(-0.00167179 -0.000143797 0)
(-0.00157814 -0.0001492 0)
(-0.00148153 -0.000154289 0)
(-0.00138224 -0.000159012 0)
(-0.00128064 -0.000163302 0)
(-0.00117715 -0.000167077 0)
(-0.0010723 -0.000170234 0)
(-0.000966725 -0.000172649 0)
(-0.000861225 -0.000174179 0)
(-0.000756774 -0.000174659 0)
(-0.000654564 -0.000173917 0)
(-0.000556042 -0.00017179 0)
(-0.000462942 -0.00016817 0)
(-0.000377303 -0.000163079 0)
(-0.000301451 -0.000156796 0)
(-0.000237811 -0.000150002 0)
(-0.000188178 -0.000143629 0)
(-0.000151417 -0.000137201 0)
(-0.00011799 -0.000122167 0)
(-6.21704e-05 -6.18152e-05 0)
(-0.000124026 0.000117111 0)
(-0.000257948 0.000253634 0)
(-0.000358224 0.000332643 0)
(-0.000469432 0.000388071 0)
(-0.000610964 0.000433356 0)
(-0.000786453 0.000472045 0)
(-0.000992496 0.000504312 0)
(-0.00122353 0.000529837 0)
(-0.00147391 0.000548645 0)
(-0.00173853 0.000561156 0)
(-0.00201299 0.000568023 0)
(-0.00229356 0.000569994 0)
(-0.00257715 0.000567809 0)
(-0.00286118 0.000562146 0)
(-0.00314356 0.000553597 0)
(-0.00342254 0.000542659 0)
(-0.0036967 0.00052974 0)
(-0.00396488 0.000515168 0)
(-0.00422609 0.000499204 0)
(-0.00447951 0.000482052 0)
(-0.00472443 0.000463873 0)
(-0.00496024 0.000444792 0)
(-0.0051864 0.000424908 0)
(-0.00540243 0.000404302 0)
(-0.00560789 0.000383039 0)
(-0.00580239 0.000361175 0)
(-0.00598557 0.000338758 0)
(-0.00615709 0.000315833 0)
(-0.00631666 0.000292439 0)
(-0.00646398 0.000268616 0)
(-0.00659881 0.0002444 0)
(-0.00672091 0.000219828 0)
(-0.00683007 0.000194935 0)
(-0.0069261 0.000169759 0)
(-0.00700885 0.000144334 0)
(-0.00707817 0.000118696 0)
(-0.00713393 9.28818e-05 0)
(-0.00717605 6.69264e-05 0)
(-0.00720444 4.08661e-05 0)
(-0.00721906 1.47371e-05 0)
(-0.00721988 -1.14243e-05 0)
(-0.00720688 -3.75819e-05 0)
(-0.00718009 -6.36991e-05 0)
(-0.00713955 -8.97393e-05 0)
(-0.0070853 -0.000115666 0)
(-0.00701745 -0.000141442 0)
(-0.00693609 -0.00016703 0)
(-0.00684136 -0.000192394 0)
(-0.0067334 -0.000217496 0)
(-0.0066124 -0.000242299 0)
(-0.00647855 -0.000266763 0)
(-0.00633208 -0.000290852 0)
(-0.00617324 -0.000314525 0)
(-0.00600229 -0.000337742 0)
(-0.00581955 -0.000360458 0)
(-0.00562534 -0.000382628 0)
(-0.00542001 -0.0004042 0)
(-0.00520397 -0.000425114 0)
(-0.00497764 -0.000445302 0)
(-0.00474152 -0.00046468 0)
(-0.00449614 -0.000483144 0)
(-0.00424213 -0.000500564 0)
(-0.0039802 -0.000516776 0)
(-0.00371118 -0.000531572 0)
(-0.00343606 -0.000544685 0)
(-0.00315604 -0.000555783 0)
(-0.00287255 -0.000564454 0)
(-0.00258734 -0.000570196 0)
(-0.00230255 -0.000572413 0)
(-0.00202075 -0.000570424 0)
(-0.00174507 -0.000563487 0)
(-0.00147927 -0.000550854 0)
(-0.00122776 -0.000531869 0)
(-0.000995671 -0.000506119 0)
(-0.000788684 -0.000473579 0)
(-0.000612381 -0.000434576 0)
(-0.000470188 -0.00038895 0)
(-0.000358495 -0.000333171 0)
(-0.000257933 -0.00025384 0)
(-0.000123943 -0.000117111 0)
(-0.000141566 0.000150281 0)
(-0.000342647 0.000352802 0)
(-0.000519184 0.000506309 0)
(-0.000711702 0.000629753 0)
(-0.00094314 0.000732612 0)
(-0.00122024 0.000818739 0)
(-0.00154022 0.000889372 0)
(-0.00189629 0.000945117 0)
(-0.00228081 0.000986803 0)
(-0.00268657 0.00101564 0)
(-0.00310716 0.00103309 0)
(-0.00353713 0.00104069 0)
(-0.00397184 0.00103994 0)
(-0.00440743 0.00103221 0)
(-0.0048407 0.00101866 0)
(-0.00526898 0.0010003 0)
(-0.00569009 0.000977952 0)
(-0.00610218 0.000952268 0)
(-0.00650373 0.000923778 0)
(-0.00689343 0.000892896 0)
(-0.00727016 0.000859947 0)
(-0.00763296 0.000825188 0)
(-0.00798098 0.000788821 0)
(-0.00831345 0.00075101 0)
(-0.00862969 0.000711888 0)
(-0.00892908 0.000671571 0)
(-0.00921106 0.000630156 0)
(-0.00947509 0.000587732 0)
(-0.00972072 0.000544381 0)
(-0.00994749 0.000500181 0)
(-0.010155 0.000455206 0)
(-0.010343 0.000409528 0)
(-0.010511 0.000363221 0)
(-0.0106588 0.000316354 0)
(-0.0107861 0.000268999 0)
(-0.0108927 0.000221227 0)
(-0.0109785 0.000173108 0)
(-0.0110432 0.000124714 0)
(-0.0110869 7.61157e-05 0)
(-0.0111093 2.73841e-05 0)
(-0.0111104 -2.14093e-05 0)
(-0.0110903 -7.01927e-05 0)
(-0.0110489 -0.000118894 0)
(-0.0109864 -0.000167442 0)
(-0.0109028 -0.000215764 0)
(-0.0107982 -0.000263787 0)
(-0.0106728 -0.000311439 0)
(-0.0105269 -0.000358645 0)
(-0.0103606 -0.000405333 0)
(-0.0101742 -0.000451428 0)
(-0.00996806 -0.000496855 0)
(-0.00974249 -0.000541537 0)
(-0.00949789 -0.000585394 0)
(-0.00923468 -0.000628346 0)
(-0.00895333 -0.000670306 0)
(-0.00865435 -0.000711178 0)
(-0.00833831 -0.00075086 0)
(-0.00800583 -0.00078923 0)
(-0.00765759 -0.000826149 0)
(-0.00729436 -0.000861446 0)
(-0.00691699 -0.000894912 0)
(-0.00652647 -0.000926282 0)
(-0.00612391 -0.000955223 0)
(-0.00571065 -0.000981313 0)
(-0.00528822 -0.00100402 0)
(-0.00485848 -0.00102267 0)
(-0.00442365 -0.00103643 0)
(-0.00398642 -0.00104432 0)
(-0.00355002 -0.00104512 0)
(-0.00311834 -0.00103749 0)
(-0.00269604 -0.00101992 0)
(-0.00228862 -0.000990875 0)
(-0.00190251 -0.000948883 0)
(-0.00154495 -0.000892746 0)
(-0.00122363 -0.000821641 0)
(-0.000945358 -0.000734974 0)
(-0.000712957 -0.000631521 0)
(-0.000519712 -0.000507457 0)
(-0.000342715 -0.000353355 0)
(-0.000141478 -0.000150375 0)
(-0.00015111 0.000187033 0)
(-0.000405323 0.000463972 0)
(-0.000652401 0.000697904 0)
(-0.00092438 0.000899153 0)
(-0.00124195 0.00107127 0)
(-0.00161235 0.00121599 0)
(-0.00203335 0.00133455 0)
(-0.00249789 0.0014283 0)
(-0.00299732 0.00149902 0)
(-0.00352312 0.00154893 0)
(-0.00406753 0.00158046 0)
(-0.0046238 0.00159614 0)
(-0.00518617 0.00159833 0)
(-0.00574975 0.00158922 0)
(-0.00631046 0.00157068 0)
(-0.00686491 0.0015443 0)
(-0.00741024 0.00151141 0)
(-0.00794406 0.00147306 0)
(-0.00846437 0.00143012 0)
(-0.00896945 0.00138327 0)
(-0.00945783 0.00133302 0)
(-0.00992823 0.00127981 0)
(-0.0103795 0.00122397 0)
(-0.0108107 0.00116578 0)
(-0.0112209 0.00110545 0)
(-0.0116092 0.00104317 0)
(-0.0119749 0.000979108 0)
(-0.0123174 0.000913413 0)
(-0.012636 0.000846217 0)
(-0.0129301 0.000777649 0)
(-0.0131993 0.00070783 0)
(-0.013443 0.00063688 0)
(-0.0136609 0.000564914 0)
(-0.0138525 0.00049205 0)
(-0.0140176 0.000418401 0)
(-0.0141558 0.000344083 0)
(-0.014267 0.000269209 0)
(-0.0143509 0.000193895 0)
(-0.0144074 0.000118254 0)
(-0.0144363 4.24021e-05 0)
(-0.0144377 -3.35465e-05 0)
(-0.0144115 -0.000109476 0)
(-0.0143577 -0.000185272 0)
(-0.0142765 -0.000260817 0)
(-0.0141679 -0.000335996 0)
(-0.0140321 -0.000410691 0)
(-0.0138694 -0.000484785 0)
(-0.0136799 -0.000558159 0)
(-0.0134641 -0.000630696 0)
(-0.0132222 -0.000702273 0)
(-0.0129547 -0.00077277 0)
(-0.012662 -0.000842061 0)
(-0.0123446 -0.000910018 0)
(-0.0120031 -0.000976506 0)
(-0.0116381 -0.00104138 0)
(-0.0112503 -0.00110449 0)
(-0.0108404 -0.00116567 0)
(-0.0104092 -0.0012247 0)
(-0.00995767 -0.00128137 0)
(-0.00948676 -0.00133539 0)
(-0.00899763 -0.00138641 0)
(-0.00849158 -0.001434 0)
(-0.00797008 -0.00147761 0)
(-0.00743486 -0.00151656 0)
(-0.00688797 -0.00154998 0)
(-0.0063318 -0.0015768 0)
(-0.00576924 -0.00159567 0)
(-0.00520371 -0.001605 0)
(-0.00463934 -0.00160289 0)
(-0.00408103 -0.00158718 0)
(-0.00353459 -0.00155546 0)
(-0.00300681 -0.00150524 0)
(-0.00250548 -0.00143407 0)
(-0.00203917 -0.00133975 0)
(-0.00161655 -0.0012205 0)
(-0.00124474 -0.00107499 0)
(-0.000925997 -0.000901996 0)
(-0.000653114 -0.000699826 0)
(-0.000405446 -0.000464985 0)
(-0.000151014 -0.00018727 0)
(-0.000161034 0.000236921 0)
(-0.000459171 0.000606506 0)
(-0.000767274 0.000930198 0)
(-0.00111122 0.00121655 0)
(-0.00150787 0.00146545 0)
(-0.0019629 0.00167628 0)
(-0.00247368 0.00184957 0)
(-0.00303283 0.00198706 0)
(-0.00363118 0.00209142 0)
(-0.00425939 0.00216591 0)
(-0.00490885 0.00221408 0)
(-0.00557191 0.0022395 0)
(-0.00624196 0.00224555 0)
(-0.00691338 0.00223529 0)
(-0.00758141 0.00221139 0)
(-0.00824206 0.00217612 0)
(-0.00889196 0.00213136 0)
(-0.00952826 0.00207863 0)
(-0.0101486 0.00201917 0)
(-0.0107508 0.00195397 0)
(-0.0113333 0.0018838 0)
(-0.0118943 0.00180927 0)
(-0.0124326 0.00173089 0)
(-0.012947 0.00164905 0)
(-0.0134363 0.00156408 0)
(-0.0138996 0.00147628 0)
(-0.0143359 0.00138587 0)
(-0.0147445 0.00129308 0)
(-0.0151246 0.00119811 0)
(-0.0154755 0.00110114 0)
(-0.0157966 0.00100236 0)
(-0.0160873 0.000901942 0)
(-0.0163472 0.000800053 0)
(-0.0165758 0.000696863 0)
(-0.0167726 0.00059254 0)
(-0.0169375 0.000487251 0)
(-0.01707 0.000381161 0)
(-0.01717 0.000274437 0)
(-0.0172372 0.000167244 0)
(-0.0172716 5.97477e-05 0)
(-0.0172732 -4.78845e-05 0)
(-0.0172418 -0.000155486 0)
(-0.0171775 -0.000262891 0)
(-0.0170804 -0.00036993 0)
(-0.0169508 -0.000476435 0)
(-0.0167886 -0.000582238 0)
(-0.0165944 -0.000687167 0)
(-0.0163682 -0.000791052 0)
(-0.0161106 -0.000893719 0)
(-0.0158219 -0.000994994 0)
(-0.0155026 -0.0010947 0)
(-0.0151533 -0.00119265 0)
(-0.0147746 -0.00128866 0)
(-0.0143671 -0.00138253 0)
(-0.0139316 -0.00147405 0)
(-0.0134689 -0.00156299 0)
(-0.0129798 -0.0016491 0)
(-0.0124654 -0.00173208 0)
(-0.0119268 -0.00181159 0)
(-0.0113652 -0.00188722 0)
(-0.010782 -0.00195845 0)
(-0.0101786 -0.00202465 0)
(-0.00955698 -0.00208502 0)
(-0.00891915 -0.00213857 0)
(-0.00826752 -0.00218405 0)
(-0.00760498 -0.00221991 0)
(-0.00693492 -0.00224426 0)
(-0.00626136 -0.0022548 0)
(-0.0055891 -0.00224887 0)
(-0.0049238 -0.00222339 0)
(-0.00427211 -0.00217497 0)
(-0.00364171 -0.00210005 0)
(-0.00304128 -0.00199509 0)
(-0.00248017 -0.00185681 0)
(-0.00196761 -0.00168259 0)
(-0.001511 -0.0014707 0)
(-0.00111304 -0.00122061 0)
(-0.000768077 -0.000933013 0)
(-0.000459304 -0.000608061 0)
(-0.000160919 -0.000237335 0)
(-0.000171786 0.000301222 0)
(-0.000507785 0.000784373 0)
(-0.000867926 0.0012104 0)
(-0.00127456 0.00158971 0)
(-0.00174127 0.00192139 0)
(-0.00227153 0.00220358 0)
(-0.0028615 0.0024363 0)
(-0.00350317 0.00262153 0)
(-0.00418685 0.00276274 0)
(-0.00490267 0.00286425 0)
(-0.00564142 0.00293076 0)
(-0.00639486 0.00296697 0)
(-0.00715577 0.00297732 0)
(-0.00791799 0.00296581 0)
(-0.00867626 0.00293598 0)
(-0.00942614 0.0028908 0)
(-0.0101638 0.00283277 0)
(-0.0108862 0.00276394 0)
(-0.0115904 0.00268594 0)
(-0.0122742 0.0026001 0)
(-0.0129356 0.00250747 0)
(-0.0135728 0.0024089 0)
(-0.0141841 0.00230505 0)
(-0.0147683 0.00219649 0)
(-0.015324 0.00208366 0)
(-0.0158502 0.00196696 0)
(-0.0163458 0.00184672 0)
(-0.0168098 0.00172324 0)
(-0.0172415 0.0015968 0)
(-0.01764 0.00146765 0)
(-0.0180047 0.00133605 0)
(-0.0183348 0.00120222 0)
(-0.0186299 0.00106641 0)
(-0.0188894 0.00092885 0)
(-0.0191129 0.000789757 0)
(-0.0193 0.00064936 0)
(-0.0194504 0.000507885 0)
(-0.0195639 0.000365557 0)
(-0.0196402 0.000222599 0)
(-0.0196791 7.92361e-05 0)
(-0.0196807 -6.43074e-05 0)
(-0.019645 -0.000207806 0)
(-0.0195719 -0.000351035 0)
(-0.0194615 -0.000493767 0)
(-0.0193141 -0.000635775 0)
(-0.0191299 -0.00077683 0)
(-0.0189091 -0.000916702 0)
(-0.0186521 -0.00105516 0)
(-0.0183594 -0.00119196 0)
(-0.0180314 -0.00132688 0)
(-0.0176687 -0.00145967 0)
(-0.0172719 -0.00159008 0)
(-0.0168416 -0.00171786 0)
(-0.0163787 -0.00184272 0)
(-0.015884 -0.00196439 0)
(-0.0153584 -0.00208255 0)
(-0.014803 -0.00219685 0)
(-0.0142188 -0.00230687 0)
(-0.0136071 -0.00241216 0)
(-0.0129694 -0.00251215 0)
(-0.0123071 -0.00260612 0)
(-0.0116222 -0.00269323 0)
(-0.0109165 -0.0027724 0)
(-0.0101925 -0.00284229 0)
(-0.00945302 -0.00290123 0)
(-0.00870114 -0.00294716 0)
(-0.00794072 -0.00297755 0)
(-0.00717623 -0.00298942 0)
(-0.00641298 -0.00297921 0)
(-0.00565718 -0.00294292 0)
(-0.00491607 -0.00287608 0)
(-0.00419795 -0.00277401 0)
(-0.00351207 -0.00263201 0)
(-0.00286833 -0.00244578 0)
(-0.00227648 -0.00221187 0)
(-0.00174455 -0.0019283 0)
(-0.00127644 -0.00159511 0)
(-0.00086873 -0.00121419 0)
(-0.000507885 -0.000786521 0)
(-0.000171642 -0.000301831 0)
(-0.000182464 0.000378396 0)
(-0.000551496 0.000994818 0)
(-0.000955982 0.00153669 0)
(-0.00141632 0.00201766 0)
(-0.00194377 0.00243792 0)
(-0.00253971 0.00279577 0)
(-0.00319886 0.00309132 0)
(-0.00391226 0.00332706 0)
(-0.00466962 0.0035073 0)
(-0.00546057 0.00363744 0)
(-0.00627546 0.00372334 0)
(-0.00710559 0.00377089 0)
(-0.00794335 0.00378561 0)
(-0.00878217 0.00377254 0)
(-0.00961641 0.00373606 0)
(-0.0104413 0.00367993 0)
(-0.0112528 0.00360729 0)
(-0.0120473 0.00352072 0)
(-0.012822 0.00342231 0)
(-0.0135742 0.00331374 0)
(-0.0143017 0.00319637 0)
(-0.0150026 0.00307127 0)
(-0.0156752 0.00293934 0)
(-0.0163178 0.00280127 0)
(-0.0169292 0.00265768 0)
(-0.0175081 0.00250905 0)
(-0.0180533 0.00235585 0)
(-0.0185638 0.00219845 0)
(-0.0190386 0.00203723 0)
(-0.019477 0.00187252 0)
(-0.0198781 0.00170464 0)
(-0.0202412 0.0015339 0)
(-0.0205658 0.0013606 0)
(-0.0208512 0.00118505 0)
(-0.0210969 0.00100753 0)
(-0.0213027 0.000828335 0)
(-0.021468 0.000647759 0)
(-0.0215927 0.000466088 0)
(-0.0216765 0.000283611 0)
(-0.0217193 0.000100617 0)
(-0.0217209 -8.26053e-05 0)
(-0.0216815 -0.000265767 0)
(-0.021601 -0.000448577 0)
(-0.0214795 -0.000630745 0)
(-0.0213172 -0.000811978 0)
(-0.0211145 -0.000991982 0)
(-0.0208715 -0.00117046 0)
(-0.0205888 -0.00134711 0)
(-0.0202667 -0.00152164 0)
(-0.0199058 -0.00169373 0)
(-0.0195067 -0.00186307 0)
(-0.0190701 -0.00202933 0)
(-0.0185967 -0.00219219 0)
(-0.0180874 -0.00235129 0)
(-0.0175431 -0.00250626 0)
(-0.0169648 -0.00265667 0)
(-0.0163537 -0.00280207 0)
(-0.015711 -0.00294194 0)
(-0.0150381 -0.00307565 0)
(-0.0143366 -0.00320247 0)
(-0.0136081 -0.00332151 0)
(-0.0128547 -0.00343163 0)
(-0.0120786 -0.00353149 0)
(-0.0112823 -0.00361935 0)
(-0.010469 -0.0036931 0)
(-0.00964201 -0.00375013 0)
(-0.00880554 -0.00378729 0)
(-0.00796438 -0.0038008 0)
(-0.0071242 -0.00378623 0)
(-0.00629162 -0.00373856 0)
(-0.00547429 -0.00365224 0)
(-0.00468096 -0.00352141 0)
(-0.00392133 -0.00334018 0)
(-0.00320579 -0.00310319 0)
(-0.00254471 -0.00280615 0)
(-0.00194705 -0.00244661 0)
(-0.00141817 -0.00202448 0)
(-0.000956722 -0.00154151 0)
(-0.000551529 -0.000997586 0)
(-0.000182285 -0.000379206 0)
(-0.000192437 0.000466352 0)
(-0.000590168 0.00123316 0)
(-0.00103244 0.00190363 0)
(-0.00153851 0.00249509 0)
(-0.00211803 0.00300981 0)
(-0.00277072 0.00344728 0)
(-0.00348985 0.00380849 0)
(-0.00426545 0.0040968 0)
(-0.00508648 0.00431755 0)
(-0.0059421 0.00447732 0)
(-0.00682221 0.0045832 0)
(-0.00771778 0.00464228 0)
(-0.00862088 0.00466123 0)
(-0.00952463 0.00464611 0)
(-0.0104231 0.00460223 0)
(-0.0113114 0.00453412 0)
(-0.012185 0.0044456 0)
(-0.0130404 0.00433981 0)
(-0.0138743 0.00421929 0)
(-0.014684 0.00408613 0)
(-0.0154671 0.00394198 0)
(-0.0162216 0.00378819 0)
(-0.0169456 0.00362585 0)
(-0.0176373 0.00345586 0)
(-0.0182954 0.00327895 0)
(-0.0189185 0.00309577 0)
(-0.0195053 0.00290688 0)
(-0.0200547 0.00271276 0)
(-0.0205657 0.00251388 0)
(-0.0210375 0.00231066 0)
(-0.0214691 0.0021035 0)
(-0.0218599 0.00189279 0)
(-0.0222091 0.0016789 0)
(-0.0225161 0.00146222 0)
(-0.0227806 0.0012431 0)
(-0.0230019 0.00102192 0)
(-0.0231797 0.000799016 0)
(-0.0233138 0.000574764 0)
(-0.0234039 0.000349516 0)
(-0.0234499 0.000123632 0)
(-0.0234516 -0.000102532 0)
(-0.023409 -0.000328617 0)
(-0.0233223 -0.000554263 0)
(-0.0231915 -0.00077911 0)
(-0.0230168 -0.00100279 0)
(-0.0227985 -0.00122495 0)
(-0.022537 -0.00144521 0)
(-0.0222327 -0.00166321 0)
(-0.021886 -0.00187856 0)
(-0.0214975 -0.00209088 0)
(-0.0210679 -0.00229979 0)
(-0.0205979 -0.00250487 0)
(-0.0200884 -0.00270571 0)
(-0.0195401 -0.00290186 0)
(-0.0189542 -0.00309286 0)
(-0.0183318 -0.00327817 0)
(-0.017674 -0.00345724 0)
(-0.0169822 -0.00362939 0)
(-0.0162579 -0.00379385 0)
(-0.0155027 -0.0039497 0)
(-0.0147186 -0.00409582 0)
(-0.0139077 -0.00423085 0)
(-0.0130722 -0.00435307 0)
(-0.0122151 -0.0044604 0)
(-0.0113395 -0.00455024 0)
(-0.0104492 -0.00461942 0)
(-0.00954837 -0.0046641 0)
(-0.0086422 -0.00467971 0)
(-0.00773662 -0.00466093 0)
(-0.00683854 -0.00460169 0)
(-0.00595593 -0.0044953 0)
(-0.00509789 -0.00433467 0)
(-0.00427452 -0.00411272 0)
(-0.00349675 -0.00382289 0)
(-0.00277565 -0.00345988 0)
(-0.00212123 -0.00302035 0)
(-0.00154025 -0.00250337 0)
(-0.00103307 -0.00190951 0)
(-0.000590115 -0.00123656 0)
(-0.000192219 -0.000467361 0)
(-0.000201468 0.000563156 0)
(-0.000623991 0.00149478 0)
(-0.00109844 0.00230518 0)
(-0.00164344 0.00301543 0)
(-0.00226751 0.00363039 0)
(-0.00296903 0.00415137 0)
(-0.00374005 0.00458083 0)
(-0.00456959 0.00492342 0)
(-0.00544586 0.00518579 0)
(-0.00635744 0.00537583 0)
(-0.00729385 0.00550197 0)
(-0.00824572 0.00557254 0)
(-0.00920486 0.00559541 0)
(-0.0101642 0.00557768 0)
(-0.0111175 0.0055256 0)
(-0.0120597 0.00544452 0)
(-0.0129862 0.00533894 0)
(-0.0138932 0.00521257 0)
(-0.0147773 0.00506845 0)
(-0.0156358 0.00490905 0)
(-0.016466 0.00473634 0)
(-0.0172658 0.00455196 0)
(-0.0180332 0.00435721 0)
(-0.0187664 0.00415317 0)
(-0.0194639 0.00394076 0)
(-0.0201242 0.00372074 0)
(-0.0207461 0.0034938 0)
(-0.0213284 0.00326055 0)
(-0.0218699 0.00302153 0)
(-0.0223698 0.00277727 0)
(-0.0228271 0.00252825 0)
(-0.0232411 0.00227495 0)
(-0.0236111 0.00201783 0)
(-0.0239364 0.00175733 0)
(-0.0242165 0.0014939 0)
(-0.0244509 0.00122798 0)
(-0.0246393 0.000960007 0)
(-0.0247813 0.000690404 0)
(-0.0248767 0.000419607 0)
(-0.0249253 0.000148047 0)
(-0.0249271 -0.000123846 0)
(-0.0248819 -0.00039564 0)
(-0.02479 -0.000666903 0)
(-0.0246513 -0.0009372 0)
(-0.0244662 -0.0012061 0)
(-0.0242349 -0.00147315 0)
(-0.0239578 -0.00173791 0)
(-0.0236352 -0.00199994 0)
(-0.0232678 -0.00225878 0)
(-0.0228562 -0.00251397 0)
(-0.0224009 -0.00276503 0)
(-0.0219028 -0.00301146 0)
(-0.0213628 -0.00325277 0)
(-0.0207818 -0.00348841 0)
(-0.0201608 -0.0037178 0)
(-0.019501 -0.00394032 0)
(-0.0188038 -0.00415525 0)
(-0.0180705 -0.0043618 0)
(-0.0173028 -0.00455903 0)
(-0.0165023 -0.00474582 0)
(-0.0156711 -0.00492083 0)
(-0.0148113 -0.00508241 0)
(-0.0139256 -0.00522852 0)
(-0.0130168 -0.00535667 0)
(-0.0120883 -0.00546378 0)
(-0.0111439 -0.0055461 0)
(-0.0101882 -0.0055991 0)
(-0.00922644 -0.00561739 0)
(-0.00826475 -0.00559471 0)
(-0.0073103 -0.00552392 0)
(-0.00637133 -0.00539716 0)
(-0.00545726 -0.00520608 0)
(-0.00457862 -0.00494227 0)
(-0.00374687 -0.00459788 0)
(-0.00297384 -0.00416628 0)
(-0.00227057 -0.00364286 0)
(-0.00164505 -0.00302523 0)
(-0.00109895 -0.00231213 0)
(-0.000623846 -0.00149881 0)
(-0.000201211 -0.000564362 0)
(-0.000209572 0.000667203 0)
(-0.000653514 0.00177572 0)
(-0.00115546 0.00273587 0)
(-0.00173372 0.00357247 0)
(-0.00239602 0.00429313 0)
(-0.00313972 0.00490142 0)
(-0.00395581 0.00540162 0)
(-0.00483239 0.00580008 0)
(-0.0057569 0.00610501 0)
(-0.00671738 0.00632581 0)
(-0.00770292 0.00647231 0)
(-0.00870384 0.0065542 0)
(-0.00971168 0.00658057 0)
(-0.0107191 0.00655962 0)
(-0.0117199 0.00649855 0)
(-0.0127086 0.00640355 0)
(-0.0136807 0.00627981 0)
(-0.0146321 0.00613164 0)
(-0.0155594 0.00596255 0)
(-0.0164596 0.00577543 0)
(-0.0173302 0.0055726 0)
(-0.0181687 0.00535595 0)
(-0.0189733 0.00512704 0)
(-0.0197419 0.00488713 0)
(-0.0204731 0.0046373 0)
(-0.0211653 0.00437848 0)
(-0.0218171 0.00411146 0)
(-0.0224273 0.00383698 0)
(-0.0229948 0.0035557 0)
(-0.0235187 0.00326822 0)
(-0.0239979 0.00297513 0)
(-0.0244317 0.002677 0)
(-0.0248193 0.00237437 0)
(-0.0251601 0.00206776 0)
(-0.0254535 0.0017577 0)
(-0.0256991 0.00144472 0)
(-0.0258964 0.00112931 0)
(-0.0260451 0.000811997 0)
(-0.026145 0.000493281 0)
(-0.0261959 0.000173671 0)
(-0.0261977 -0.000146328 0)
(-0.0261504 -0.000466208 0)
(-0.026054 -0.00078546 0)
(-0.0259087 -0.00110357 0)
(-0.0257148 -0.00142003 0)
(-0.0254724 -0.00173432 0)
(-0.025182 -0.00204592 0)
(-0.0248441 -0.00235429 0)
(-0.0244591 -0.0026589 0)
(-0.0240277 -0.00295921 0)
(-0.0235506 -0.00325464 0)
(-0.0230286 -0.00354461 0)
(-0.0224626 -0.00382853 0)
(-0.0218537 -0.00410575 0)
(-0.0212028 -0.00437559 0)
(-0.0205112 -0.00463729 0)
(-0.0197803 -0.00489001 0)
(-0.0190116 -0.00513282 0)
(-0.0182067 -0.00536458 0)
(-0.0173674 -0.005584 0)
(-0.0164958 -0.00578948 0)
(-0.0155942 -0.00597909 0)
(-0.0146653 -0.00615046 0)
(-0.013712 -0.00630067 0)
(-0.0127379 -0.00642616 0)
(-0.0117468 -0.00652258 0)
(-0.0107436 -0.00658468 0)
(-0.00973359 -0.00660626 0)
(-0.00872312 -0.00658009 0)
(-0.00771955 -0.00649792 0)
(-0.00673138 -0.00635066 0)
(-0.00576835 -0.00612864 0)
(-0.0048414 -0.00582203 0)
(-0.00396257 -0.00542145 0)
(-0.00314444 -0.00491874 0)
(-0.00239896 -0.00430761 0)
(-0.00173521 -0.00358383 0)
(-0.00115586 -0.00274393 0)
(-0.000653281 -0.0017804 0)
(-0.000209278 -0.000668599 0)
(-0.000216882 0.000777219 0)
(-0.000679488 0.00207281 0)
(-0.00120516 0.00319121 0)
(-0.00181211 0.0041609 0)
(-0.00250756 0.00499237 0)
(-0.00328804 0.00569159 0)
(-0.00414367 0.00626501 0)
(-0.0050617 0.00672092 0)
(-0.00602888 0.00706931 0)
(-0.00703267 0.00732127 0)
(-0.00806174 0.00748819 0)
(-0.00910607 0.00758118 0)
(-0.010157 0.0076106 0)
(-0.0112069 0.00758579 0)
(-0.0122495 0.00751496 0)
(-0.0132792 0.00740512 0)
(-0.0142912 0.00726218 0)
(-0.0152815 0.00709106 0)
(-0.0162466 0.00689577 0)
(-0.0171833 0.00667961 0)
(-0.0180891 0.00644524 0)
(-0.0189614 0.00619484 0)
(-0.0197983 0.0059302 0)
(-0.0205977 0.0056528 0)
(-0.0213581 0.00536388 0)
(-0.0220779 0.00506453 0)
(-0.0227556 0.00475567 0)
(-0.0233901 0.00443815 0)
(-0.0239801 0.00411274 0)
(-0.0245246 0.00378016 0)
(-0.0250228 0.0034411 0)
(-0.0254736 0.00309619 0)
(-0.0258765 0.00274608 0)
(-0.0262307 0.00239138 0)
(-0.0265356 0.0020327 0)
(-0.0267908 0.00167063 0)
(-0.0269959 0.00130578 0)
(-0.0271504 0.000938724 0)
(-0.0272542 0.000570054 0)
(-0.0273071 0.000200353 0)
(-0.0273089 -0.000169792 0)
(-0.0272597 -0.000539798 0)
(-0.0271596 -0.000909078 0)
(-0.0270086 -0.00127704 0)
(-0.0268071 -0.00164309 0)
(-0.0265552 -0.00200664 0)
(-0.0262534 -0.00236707 0)
(-0.0259022 -0.00272378 0)
(-0.025502 -0.00307613 0)
(-0.0250536 -0.0034235 0)
(-0.0245577 -0.00376524 0)
(-0.0240151 -0.00410065 0)
(-0.0234267 -0.00442905 0)
(-0.0227935 -0.00474969 0)
(-0.0221167 -0.00506175 0)
(-0.0213976 -0.00536438 0)
(-0.0206374 -0.00565659 0)
(-0.0198379 -0.00593728 0)
(-0.0190006 -0.00620515 0)
(-0.0181275 -0.0064587 0)
(-0.0172207 -0.00669607 0)
(-0.0162825 -0.00691506 0)
(-0.0153158 -0.00711293 0)
(-0.0143235 -0.00728637 0)
(-0.0133093 -0.00743128 0)
(-0.0122772 -0.00754272 0)
(-0.0112321 -0.00761472 0)
(-0.0101795 -0.00764022 0)
(-0.00912582 -0.00761099 0)
(-0.00807872 -0.00751766 0)
(-0.00704692 -0.00734986 0)
(-0.00604048 -0.00709647 0)
(-0.00507079 -0.00674612 0)
(-0.00415044 -0.00628776 0)
(-0.00329271 -0.00571145 0)
(-0.00251042 -0.00500894 0)
(-0.00181349 -0.00417389 0)
(-0.00120545 -0.0032004 0)
(-0.00067918 -0.00207813 0)
(-0.000216557 -0.000778802 0)
(-0.00022358 0.000892236 0)
(-0.000702729 0.0023836 0)
(-0.00124919 0.00366768 0)
(-0.00188131 0.00477653 0)
(-0.00260596 0.00572352 0)
(-0.00341905 0.00651717 0)
(-0.00430993 0.00716625 0)
(-0.00526511 0.00768118 0)
(-0.00627067 0.00807397 0)
(-0.00731353 0.00835753 0)
(-0.00838191 0.00854492 0)
(-0.00946549 0.00864877 0)
(-0.0105553 0.00868079 0)
(-0.0116436 0.00865151 0)
(-0.0127239 0.00857014 0)
(-0.0137904 0.00844458 0)
(-0.0148383 0.00828146 0)
(-0.0158635 0.00808631 0)
(-0.0168624 0.00786367 0)
(-0.0178317 0.00761724 0)
(-0.0187688 0.00735004 0)
(-0.0196713 0.00706453 0)
(-0.0205369 0.00676276 0)
(-0.0213638 0.00644641 0)
(-0.0221501 0.0061169 0)
(-0.0228943 0.00577546 0)
(-0.023595 0.00542317 0)
(-0.0242509 0.005061 0)
(-0.0248608 0.00468984 0)
(-0.0254237 0.00431049 0)
(-0.0259385 0.00392376 0)
(-0.0264044 0.00353037 0)
(-0.0268208 0.00313106 0)
(-0.0271868 0.00272654 0)
(-0.0275018 0.00231748 0)
(-0.0277655 0.00190458 0)
(-0.0279774 0.00148852 0)
(-0.028137 0.00106995 0)
(-0.0282443 0.000649553 0)
(-0.0282989 0.000227986 0)
(-0.0283009 -0.000194086 0)
(-0.0282501 -0.000615997 0)
(-0.0281467 -0.00103708 0)
(-0.0279907 -0.00145667 0)
(-0.0277825 -0.00187409 0)
(-0.0275223 -0.00228865 0)
(-0.0272105 -0.00269967 0)
(-0.0268476 -0.00310646 0)
(-0.0264342 -0.0035083 0)
(-0.0259708 -0.00390446 0)
(-0.0254583 -0.00429419 0)
(-0.0248974 -0.00467674 0)
(-0.0242892 -0.00505127 0)
(-0.0236347 -0.00541695 0)
(-0.0229349 -0.00577285 0)
(-0.0221914 -0.00611797 0)
(-0.0214053 -0.00645118 0)
(-0.0205784 -0.00677124 0)
(-0.0197123 -0.00707665 0)
(-0.018809 -0.00736569 0)
(-0.0178708 -0.00763628 0)
(-0.0168999 -0.00788589 0)
(-0.0158993 -0.00811144 0)
(-0.014872 -0.00830919 0)
(-0.0138217 -0.00847452 0)
(-0.0127527 -0.00860187 0)
(-0.0116698 -0.00868454 0)
(-0.0105787 -0.00871458 0)
(-0.00948597 -0.00868275 0)
(-0.0083995 -0.00857849 0)
(-0.00732825 -0.00839006 0)
(-0.00628261 -0.00810486 0)
(-0.00527443 -0.00770982 0)
(-0.00431683 -0.00719207 0)
(-0.00342377 -0.00653968 0)
(-0.00260881 -0.00574228 0)
(-0.00188264 -0.0047912 0)
(-0.00124942 -0.00367804 0)
(-0.000702362 -0.00238957 0)
(-0.000223227 -0.000894005 0)
(-0.000229849 0.00101155 0)
(-0.000724023 0.00270628 0)
(-0.00128915 0.00416265 0)
(-0.00194385 0.00541618 0)
(-0.0026948 0.0064831 0)
(-0.00353742 0.00737453 0)
(-0.00446041 0.00810168 0)
(-0.00544959 0.00867726 0)
(-0.00649043 0.00911544 0)
(-0.00756931 0.00943107 0)
(-0.00867403 0.00963903 0)
(-0.0097939 0.00975355 0)
(-0.0109197 0.00978775 0)
(-0.0120435 0.00975339 0)
(-0.0131586 0.00966074 0)
(-0.0142591 0.0095186 0)
(-0.0153401 0.00933435 0)
(-0.0163975 0.00911415 0)
(-0.0174274 0.00886305 0)
(-0.0184267 0.00858518 0)
(-0.0193926 0.00828393 0)
(-0.0203226 0.00796206 0)
(-0.0212145 0.00762184 0)
(-0.0220663 0.00726519 0)
(-0.0228762 0.0068937 0)
(-0.0236427 0.00650877 0)
(-0.0243643 0.00611161 0)
(-0.0250397 0.00570332 0)
(-0.0256676 0.0052849 0)
(-0.026247 0.00485729 0)
(-0.026777 0.00442136 0)
(-0.0272566 0.00397797 0)
(-0.027685 0.00352791 0)
(-0.0280617 0.00307201 0)
(-0.0283859 0.00261102 0)
(-0.0286573 0.00214572 0)
(-0.0288753 0.00167687 0)
(-0.0290396 0.00120522 0)
(-0.02915 0.000731509 0)
(-0.0292063 0.000256494 0)
(-0.0292083 -0.000219086 0)
(-0.0291562 -0.000694486 0)
(-0.0290498 -0.00116896 0)
(-0.0288894 -0.00164175 0)
(-0.0286753 -0.00211211 0)
(-0.0284076 -0.00257927 0)
(-0.0280868 -0.00304246 0)
(-0.0277134 -0.0035009 0)
(-0.027288 -0.00395377 0)
(-0.0268111 -0.00440027 0)
(-0.0262836 -0.00483956 0)
(-0.0257063 -0.00527075 0)
(-0.0250802 -0.00569293 0)
(-0.0244063 -0.00610514 0)
(-0.0236857 -0.00650634 0)
(-0.0229199 -0.00689539 0)
(-0.0221102 -0.00727102 0)
(-0.0212583 -0.00763182 0)
(-0.020366 -0.0079761 0)
(-0.0194351 -0.00830193 0)
(-0.018468 -0.00860697 0)
(-0.0174671 -0.00888839 0)
(-0.0164353 -0.00914275 0)
(-0.0153758 -0.00936585 0)
(-0.0142922 -0.00955257 0)
(-0.013189 -0.0096967 0)
(-0.0120711 -0.00979078 0)
(-0.0109443 -0.00982598 0)
(-0.00981546 -0.00979197 0)
(-0.00869252 -0.00967696 0)
(-0.00758476 -0.00946781 0)
(-0.00650294 -0.00915028 0)
(-0.00545932 -0.00870955 0)
(-0.00446758 -0.00813076 0)
(-0.00354231 -0.00739985 0)
(-0.00269773 -0.00650418 0)
(-0.00194519 -0.00543263 0)
(-0.00128935 -0.00417424 0)
(-0.000723617 -0.00271293 0)
(-0.000229475 -0.00101351 0)
(-0.00023586 0.00113468 0)
(-0.000744078 0.00303961 0)
(-0.00132645 0.00467432 0)
(-0.00200197 0.00607764 0)
(-0.00277726 0.00726865 0)
(-0.00364732 0.0082611 0)
(-0.00460029 0.00906871 0)
(-0.00562136 0.00970662 0)
(-0.00669542 0.0101912 0)
(-0.00780834 0.0105395 0)
(-0.00894746 0.0107682 0)
(-0.0101018 0.0108932 0)
(-0.0112617 0.0109292 0)
(-0.0124192 0.0108892 0)
(-0.0135673 0.0107845 0)
(-0.0147001 0.010625 0)
(-0.0158125 0.0104187 0)
(-0.0169003 0.0101724 0)
(-0.0179595 0.00989178 0)
(-0.0189871 0.00958135 0)
(-0.0199801 0.00924487 0)
(-0.020936 0.00888541 0)
(-0.0218526 0.0085055 0)
(-0.0227278 0.00810726 0)
(-0.0235599 0.00769248 0)
(-0.0243472 0.00726272 0)
(-0.0250883 0.00681933 0)
(-0.0257818 0.00636355 0)
(-0.0264265 0.0058965 0)
(-0.0270214 0.00541922 0)
(-0.0275654 0.00493269 0)