/*--------------------------------*- C++ -*----------------------------------*\
| =========                 |                                                 |
| \\      /  F ield         | OpenFOAM: The Open Source CFD Toolbox           |
|  \\    /   O peration     | Version:  4.1                                   |
|   \\  /    A nd           | Web:      www.OpenFOAM.org                      |
|    \\/     M anipulation  |                                                 |
\*---------------------------------------------------------------------------*/
FoamFile
{
    version     2.0;
    format      ascii;
    class       volScalarField;
    location    "0.0058";
    object      p;
}
// * * * * * * * * * * * * * * * * * * * * * * * * * * * * * * * * * * * * * //

dimensions      [1 -1 -2 0 0 0 0];

internalField   nonuniform List<scalar> 
441
(
100000
99999.9
99999.7
99999.9
99999.9
99999.5
99999.9
100000
100000
100001
100001
100001
100001
100001
100001
100001
100001
100001
100001
100001
100001
100000
100000
100000
100000
100000
100000
100000
100000
100000
100000
100000
100000
100000
100000
100000
100001
100000
100001
100000
100001
100000
100000
99999.9
100000
99999.9
100000
99999.9
100000
100000
100000
100001
100001
100001
100001
100001
100001
100001
100001
100001
100001
100001
100000
100000
100000
100000
100000
100000
100000
100000
100000
100000
100000
100000
100000
100000
100001
100001
100001
100001
100001
100001
100001
100000
100000
99999.7
99999.9
99999.8
99999.9
99999.9
100000
100000
100000
100000
100000
100001
100001
100001
100001
100001
100001
100001
100001
100001
100001
99999.2
99999.7
99999.6
99999.7
99999.7
99999.9
99999.9
100000
100000
100000
100000
100000
100001
100001
100001
100001
100001
100001
100001
100001
100000
99998.9
99999.1
99999.2
99999.3
99999.4
99999.6
99999.7
99999.9
100000
100000
100000
100001
100001
100001
100001
100001
100001
100001
100001
100001
100000
99999
99999
99999
99999.2
99999.2
99999.4
99999.5
99999.7
99999.9
100000
100000
100001
100001
100001
100001
100001
100001
100001
100001
100002
100001
99998.4
99998.4
99998.4
99998.6
99998.7
99998.9
99999.1
99999.4
99999.7
100000
100000
100001
100001
100001
100001
100002
100002
100002
100002
100002
100001
99998.1
99998.1
99998.1
99998.3
99998.4
99998.7
99998.9
99999.2
99999.5
99999.9
100000
100001
100001
100001
100002
100002
100002
100002
100002
100002
100001
99997.2
99997.1
99997.2
99997.4
99997.6
99998
99998.3
99998.7
99999.2
99999.7
100000
100001
100001
100002
100002
100003
100003
100003
100003
100004
100003
99996.8
99996.7
99996.7
99997
99997.1
99997.5
99997.8
99998.4
99998.8
99999.4
100000
100001
100001
100002
100002
100003
100003
100003
100003
100004
100003
99995.3
99995.3
99995.3
99995.7
99995.9
99996.5
99996.9
99997.7
99998.3
99999
99999.9
100001
100002
100002
100003
100004
100004
100005
100005
100005
100003
99994.9
99994.8
99994.8
99995.2
99995.3
99996
99996.3
99997.1
99997.8
99998.6
99999.6
100000
100002
100002
100003
100004
100005
100005
100005
100006
100004
99992.4
99992.6
99992.4
99993.4
99993.5
99994.6
99995.1
99996.2
99997
99998.1
99999.3
100000
100002
100003
100005
100005
100007
100007
100008
100008
100005
99992.2
99992.4
99991.9
99992.9
99992.8
99993.9
99994.3
99995.5
99996.4
99997.5
99998.8
99999.8
100001
100002
100004
100005
100007
100007
100008
100008
100002
99987.4
99988.8
99988
99990.2
99990.1
99992.1
99992.7
99994.3
99995.4
99996.9
99998.4
99999.6
100002
100003
100006
100006
100011
100010
100017
100012
100028
99987.7
99989.1
99987.8
99989.9
99989.4
99991.4
99991.9
99993.6
99994.7
99996.2
99997.8
99998.9
100001
100002
100005
100005
100010
100010
100017
100017
100027
99976
99983.3
99981.3
99986.4
99986.1
99989.4
99990.3
99992.6
99994
99995.7
99997.5
99998.8
100001
100002
100006
100006
100012
100012
100024
100025
100040
99976.6
99985.1
99982.2
99986.7
99986.1
99989.2
99989.9
99992.2
99993.6
99995.3
99997.1
99998.3
100001
100001
100005
100005
100011
100011
100022
100025
100045
99934.9
99978.1
99976.1
99986.4
99985.5
99989.5
99990.1
99992.5
99993.8
99995.5
99997.3
99998.5
100001
100002
100006
100006
100014
100015
100035
100044
100100
)
;

boundaryField
{
    movingWall
    {
        type            zeroGradient;
    }
    fixedWalls
    {
        type            zeroGradient;
    }
    frontAndBack
    {
        type            empty;
    }
}


// ************************************************************************* //
