/*--------------------------------*- C++ -*----------------------------------*\
| =========                 |                                                 |
| \\      /  F ield         | OpenFOAM: The Open Source CFD Toolbox           |
|  \\    /   O peration     | Version:  4.1                                   |
|   \\  /    A nd           | Web:      www.OpenFOAM.org                      |
|    \\/     M anipulation  |                                                 |
\*---------------------------------------------------------------------------*/
FoamFile
{
    version     2.0;
    format      ascii;
    class       volVectorField;
    location    "0.009";
    object      U;
}
// * * * * * * * * * * * * * * * * * * * * * * * * * * * * * * * * * * * * * //

dimensions      [0 1 -1 0 0 0 0];

internalField   nonuniform List<vector> 
1600
(
(-1.84669e-05 1.70967e-05 0)
(-0.000119818 8.8218e-05 0)
(-0.000307712 0.000172742 0)
(-0.000576086 0.000247499 0)
(-0.000909093 0.000305372 0)
(-0.00128786 0.000345318 0)
(-0.00169436 0.000368788 0)
(-0.00211297 0.000378153 0)
(-0.00253082 0.000375931 0)
(-0.00293763 0.000364423 0)
(-0.00332535 0.000345577 0)
(-0.00368767 0.000320964 0)
(-0.00401966 0.000291824 0)
(-0.00431746 0.000259121 0)
(-0.00457799 0.000223612 0)
(-0.00479883 0.000185895 0)
(-0.00497807 0.000146466 0)
(-0.00511424 0.000105743 0)
(-0.00520625 6.40974e-05 0)
(-0.00525336 2.18736e-05 0)
(-0.00525517 -2.05988e-05 0)
(-0.00521162 -6.29919e-05 0)
(-0.00512296 -0.000104969 0)
(-0.0049898 -0.000146171 0)
(-0.00481312 -0.000186205 0)
(-0.00459428 -0.000224622 0)
(-0.00433513 -0.000260894 0)
(-0.00403803 -0.000294377 0)
(-0.00370606 -0.00032427 0)
(-0.00334309 -0.000349555 0)
(-0.00295411 -0.000368943 0)
(-0.00254552 -0.000380812 0)
(-0.0021255 -0.000383174 0)
(-0.00170447 -0.000373703 0)
(-0.00129549 -0.000349874 0)
(-0.000914348 -0.000309335 0)
(-0.00057925 -0.000250681 0)
(-0.000309222 -0.000175019 0)
(-0.000120233 -8.95421e-05 0)
(-1.84155e-05 -1.74917e-05 0)
(-9.22757e-05 0.000116421 0)
(-0.0004449 0.000433617 0)
(-0.000999245 0.000769426 0)
(-0.0017382 0.00106044 0)
(-0.00262591 0.00128361 0)
(-0.00361954 0.00143574 0)
(-0.00467731 0.00152281 0)
(-0.00576212 0.0015543 0)
(-0.00684278 0.0015402 0)
(-0.00789396 0.00148962 0)
(-0.00889543 0.00141023 0)
(-0.00983117 0.0013082 0)
(-0.0106885 0.00118836 0)
(-0.0114575 0.0010545 0)
(-0.0121302 0.000909557 0)
(-0.0127002 0.000755894 0)
(-0.0131626 0.000595449 0)
(-0.0135136 0.000429881 0)
(-0.0137505 0.000260667 0)
(-0.0138712 8.91763e-05 0)
(-0.0138749 -8.3274e-05 0)
(-0.0137614 -0.000255376 0)
(-0.0135314 -0.000425787 0)
(-0.0131865 -0.000593086 0)
(-0.0127293 -0.000755718 0)
(-0.0121633 -0.000911923 0)
(-0.0114934 -0.00105963 0)
(-0.0107259 -0.00119634 0)
(-0.00986852 -0.00131893 0)
(-0.00893144 -0.00142346 0)
(-0.00792739 -0.00150488 0)
(-0.00687259 -0.00155686 0)
(-0.00578751 -0.00157159 0)
(-0.00469782 -0.00153987 0)
(-0.00363502 -0.00145166 0)
(-0.00263657 -0.00129755 0)
(-0.00174461 -0.00107171 0)
(-0.00100229 -0.000777551 0)
(-0.000445708 -0.000438378 0)
(-9.21342e-05 -0.000117868 0)
(-0.000180483 0.000303487 0)
(-0.000794586 0.000983783 0)
(-0.00168814 0.00164745 0)
(-0.00283178 0.00220866 0)
(-0.00417627 0.00263469 0)
(-0.00566386 0.00292268 0)
(-0.00723768 0.00308475 0)
(-0.00884649 0.00313905 0)
(-0.0104466 0.00310465 0)
(-0.0120018 0.00299896 0)
(-0.013483 0.00283676 0)
(-0.0148668 0.00262997 0)
(-0.0161347 0.00238802 0)
(-0.0172718 0.00211829 0)
(-0.0182663 0.00182657 0)
(-0.0191089 0.00151754 0)
(-0.0197923 0.00119503 0)
(-0.0203107 0.00086236 0)
(-0.0206601 0.000522463 0)
(-0.0208378 0.000178075 0)
(-0.0208422 -0.000168175 0)
(-0.0206733 -0.000513681 0)
(-0.0203321 -0.000855767 0)
(-0.019821 -0.00119161 0)
(-0.0191438 -0.00151811 0)
(-0.0183061 -0.00183179 0)
(-0.0173148 -0.00212856 0)
(-0.0161793 -0.00240349 0)
(-0.0149114 -0.00265046 0)
(-0.0135258 -0.00286178 0)
(-0.0120414 -0.00302767 0)
(-0.0104818 -0.00313587 0)
(-0.00887637 -0.00317137 0)
(-0.00726168 -0.00311657 0)
(-0.00568185 -0.00295233 0)
(-0.00418854 -0.00266062 0)
(-0.00283902 -0.0022296 0)
(-0.00169144 -0.00166254 0)
(-0.000795336 -0.000992621 0)
(-0.000180243 -0.000306186 0)
(-0.000262308 0.00057483 0)
(-0.00111396 0.00172934 0)
(-0.00230533 0.00279009 0)
(-0.00379322 0.00366613 0)
(-0.00551621 0.00432363 0)
(-0.00740517 0.00476409 0)
(-0.00939263 0.00500794 0)
(-0.0114177 0.00508346 0)
(-0.0134278 0.00501999 0)
(-0.0153795 0.00484437 0)
(-0.0172371 0.00457943 0)
(-0.0189718 0.00424374 0)
(-0.0205608 0.00385207 0)
(-0.0219855 0.00341605 0)
(-0.0232313 0.00294488 0)
(-0.0242865 0.00244599 0)
(-0.025142 0.00192555 0)
(-0.0257907 0.00138884 0)
(-0.0262276 0.000840613 0)
(-0.0264492 0.00028524 0)
(-0.0264538 -0.000273061 0)
(-0.0262412 -0.000830108 0)
(-0.0258128 -0.00138161 0)
(-0.0251717 -0.00192305 0)
(-0.0243225 -0.00244948 0)
(-0.0232722 -0.00295531 0)
(-0.0220297 -0.00343403 0)
(-0.0206065 -0.00387779 0)
(-0.0190173 -0.00427693 0)
(-0.0172806 -0.00461931 0)
(-0.0154195 -0.00488965 0)
(-0.0134631 -0.00506889 0)
(-0.0114473 -0.00513381 0)
(-0.00941612 -0.00505729 0)
(-0.00742243 -0.00480992 0)
(-0.00552762 -0.00436359 0)
(-0.00379957 -0.0036983 0)
(-0.00230782 -0.00281317 0)
(-0.00111411 -0.00174279 0)
(-0.000261825 -0.000578921 0)
(-0.000332445 0.000919452 0)
(-0.00138708 0.0026476 0)
(-0.00283197 0.00416859 0)
(-0.00461054 0.00539856 0)
(-0.00664946 0.0063106 0)
(-0.00886954 0.00691535 0)
(-0.0111947 0.00724432 0)
(-0.0135567 0.00733758 0)
(-0.0158967 0.00723594 0)
(-0.0181655 0.00697655 0)
(-0.020323 0.00659107 0)
(-0.0223365 0.00610537 0)
(-0.0241799 0.00554013 0)
(-0.025832 0.00491173 0)
(-0.0272761 0.00423322 0)
(-0.0284989 0.00351517 0)
(-0.0294898 0.00276637 0)
(-0.030241 0.0019944 0)
(-0.0307465 0.00120602 0)
(-0.0310026 0.000407503 0)
(-0.0310072 -0.000395137 0)
(-0.0307602 -0.00119593 0)
(-0.0302631 -0.00198876 0)
(-0.0295195 -0.00276717 0)
(-0.0285348 -0.00352409 0)
(-0.0273168 -0.00425157 0)
(-0.0258758 -0.00494031 0)
(-0.0242249 -0.00557919 0)
(-0.0223811 -0.00615451 0)
(-0.0203653 -0.0066492 0)
(-0.0182041 -0.00704186 0)
(-0.0159303 -0.00730596 0)
(-0.0135845 -0.00740926 0)
(-0.0112163 -0.00731427 0)
(-0.00888484 -0.00698007 0)
(-0.00665898 -0.00636682 0)
(-0.0046152 -0.00544361 0)
(-0.0028331 -0.00420074 0)
(-0.00138632 -0.00266619 0)
(-0.000331617 -0.000925035 0)
(-0.000391205 0.00132506 0)
(-0.00161611 0.00371303 0)
(-0.00327549 0.00575147 0)
(-0.00530103 0.00737095 0)
(-0.00760816 0.00855782 0)
(-0.0101082 0.00933631 0)
(-0.0127172 0.00975192 0)
(-0.0153606 0.00985847 0)
(-0.0179743 0.00970949 0)
(-0.020505 0.00935334 0)
(-0.0229088 0.0088312 0)
(-0.0251504 0.00817682 0)
(-0.0272011 0.00741726 0)
(-0.029038 0.00657405 0)
(-0.0306428 0.00566442 0)
(-0.032001 0.00470236 0)
(-0.0331013 0.00369956 0)
(-0.0339351 0.00266608 0)
(-0.034496 0.00161089 0)
(-0.0347798 0.000542317 0)
(-0.0347846 -0.000531678 0)
(-0.03451 -0.00160319 0)
(-0.0339578 -0.00266412 0)
(-0.0331318 -0.0037059 0)
(-0.0320379 -0.00471917 0)
(-0.0306845 -0.00569336 0)
(-0.0290827 -0.00661617 0)
(-0.0272469 -0.00747285 0)
(-0.0251955 -0.00824534 0)
(-0.0229515 -0.00891119 0)
(-0.0205435 -0.00944241 0)
(-0.0180075 -0.00980438 0)
(-0.0153876 -0.00995517 0)
(-0.0127376 -0.00984592 0)
(-0.010122 -0.00942298 0)
(-0.00761611 -0.00863285 0)
(-0.00530415 -0.00743083 0)
(-0.00327528 -0.00579393 0)
(-0.00161441 -0.00373737 0)
(-0.000390008 -0.00133224 0)
(-0.000440986 0.0017814 0)
(-0.00181074 0.00490406 0)
(-0.00365505 0.00751209 0)
(-0.00589573 0.00955454 0)
(-0.00843781 0.0110354 0)
(-0.0111834 0.0119963 0)
(-0.014041 0.0124994 0)
(-0.0169299 0.0126145 0)
(-0.0197814 0.0124091 0)
(-0.0225383 0.0119438 0)
(-0.0251539 0.01127 0)
(-0.0275905 0.0104299 0)
(-0.0298177 0.00945741 0)
(-0.0318113 0.00837955 0)
(-0.0335519 0.00721799 0)
(-0.0350243 0.00599042 0)
(-0.0362166 0.00471156 0)
(-0.0371197 0.00339411 0)
(-0.0377271 0.0020494 0)
(-0.0380346 0.000687888 0)
(-0.0380398 -0.000680424 0)
(-0.0377426 -0.00204561 0)
(-0.0371448 -0.0033975 0)
(-0.0362502 -0.00472532 0)
(-0.035065 -0.00601727 0)
(-0.0335979 -0.00726003 0)
(-0.0318606 -0.00843806 0)
(-0.0298683 -0.00953275 0)
(-0.0276402 -0.0105214 0)
(-0.0252007 -0.0113757 0)
(-0.0225804 -0.0120607 0)
(-0.0198175 -0.0125331 0)
(-0.016959 -0.0127404 0)
(-0.0140626 -0.0126215 0)
(-0.0111977 -0.0121085 0)
(-0.00844562 -0.0111324 0)
(-0.00589827 -0.00963165 0)
(-0.00365406 -0.00756648 0)
(-0.00180834 -0.00493495 0)
(-0.000439471 -0.00179037 0)
(-0.000484805 0.0022814 0)
(-0.0019829 0.0062056 0)
(-0.0039934 0.00943192 0)
(-0.00642969 0.0119297 0)
(-0.00918709 0.0137236 0)
(-0.0121586 0.0148756 0)
(-0.0152452 0.0154673 0)
(-0.01836 0.0155861 0)
(-0.0214295 0.0153152 0)
(-0.024393 0.0147285 0)
(-0.027201 0.0138886 0)
(-0.0298139 0.0128466 0)
(-0.0321999 0.0116437 0)
(-0.0343337 0.0103129 0)
(-0.0361954 0.00888042 0)
(-0.0377692 0.0073679 0)
(-0.039043 0.00579327 0)
(-0.0400076 0.00417196 0)
(-0.0406564 0.0025177 0)
(-0.0409851 0.000843115 0)
(-0.0409913 -0.000839699 0)
(-0.0406749 -0.00251878 0)
(-0.0400376 -0.00418187 0)
(-0.0390831 -0.00581592 0)
(-0.0378179 -0.00740665 0)
(-0.0362505 -0.00893783 0)
(-0.034393 -0.0103906 0)
(-0.0322608 -0.0117421 0)
(-0.0298739 -0.0129648 0)
(-0.0272577 -0.0140243 0)
(-0.0244442 -0.014878 0)
(-0.0214736 -0.0154732 0)
(-0.0183957 -0.0157462 0)
(-0.0152719 -0.0156223 0)
(-0.0121765 -0.0150179 0)
(-0.00919706 -0.0138463 0)
(-0.00643323 -0.0120271 0)
(-0.00399259 -0.00950031 0)
(-0.00198028 -0.00624418 0)
(-0.000483081 -0.00229243 0)
(-0.000525623 0.00282121 0)
(-0.00214427 0.00760966 0)
(-0.00431266 0.0115014 0)
(-0.00693659 0.0144869 0)
(-0.009902 0.0166134 0)
(-0.0130928 0.0179657 0)
(-0.016402 0.0186472 0)
(-0.0197362 0.0187648 0)
(-0.023017 0.0184192 0)
(-0.0261799 0.0176988 0)
(-0.029173 0.0166781 0)
(-0.0319545 0.015418 0)
(-0.0344916 0.0139676 0)
(-0.0367581 0.0123659 0)
(-0.0387339 0.0106443 0)
(-0.0404029 0.00882845 0)
(-0.0417531 0.00693958 0)
(-0.0427753 0.00499592 0)
(-0.0434631 0.00301362 0)
(-0.043812 0.00100747 0)
(-0.0438199 -0.00100839 0)
(-0.0434864 -0.00302001 0)
(-0.0428132 -0.00501303 0)
(-0.041804 -0.00697219 0)
(-0.0404648 -0.00888065 0)
(-0.0388041 -0.0107192 0)
(-0.0368339 -0.0124655 0)
(-0.0345698 -0.0140925 0)
(-0.032032 -0.0155672 0)
(-0.0292467 -0.0168487 0)
(-0.0262472 -0.0178862 0)
(-0.0230754 -0.018617 0)
(-0.0197842 -0.0189651 0)
(-0.0164386 -0.0188409 0)
(-0.0131182 -0.0181435 0)
(-0.00991715 -0.0167666 0)
(-0.00694323 -0.0146083 0)
(-0.00431332 -0.0115865 0)
(-0.00214204 -0.00765746 0)
(-0.000523842 -0.00283475 0)
(-0.000566085 0.00339988 0)
(-0.00230519 0.00911474 0)
(-0.00463251 0.0137194 0)
(-0.00744639 0.0172259 0)
(-0.0106233 0.0197055 0)
(-0.0140376 0.021268 0)
(-0.0175738 0.0220406 0)
(-0.0211317 0.0221522 0)
(-0.0246274 0.0217221 0)
(-0.0279925 0.0208548 0)
(-0.0311722 0.0196379 0)
(-0.0341231 0.0181428 0)
(-0.036811 0.016427 0)
(-0.0392095 0.0145362 0)
(-0.0412981 0.0125072 0)
(-0.0430609 0.0103697 0)
(-0.0444862 0.0081485 0)
(-0.045565 0.00586453 0)
(-0.0462911 0.00353635 0)
(-0.0466604 0.00118087 0)
(-0.0466707 -0.00118585 0)
(-0.0463215 -0.00354794 0)
(-0.0456144 -0.00588906 0)
(-0.0445526 -0.00819177 0)
(-0.0431418 -0.0104367 0)
(-0.0413903 -0.0126017 0)
(-0.0393094 -0.0146608 0)
(-0.0369147 -0.0165823 0)
(-0.0342265 -0.0183277 0)
(-0.0312714 -0.0198489 0)
(-0.0280839 -0.0210864 0)
(-0.0247078 -0.0219665 0)
(-0.0211988 -0.0223997 0)
(-0.0176263 -0.0222802 0)
(-0.0140753 -0.0214881 0)
(-0.0106472 -0.0198952 0)
(-0.00745867 -0.0173763 0)
(-0.00463621 -0.0138248 0)
(-0.00230412 -0.00917384 0)
(-0.000564431 -0.00341658 0)
(-0.000608461 0.00401891 0)
(-0.00247452 0.010725 0)
(-0.00496984 0.0160925 0)
(-0.00798485 0.020155 0)
(-0.0113859 0.0230096 0)
(-0.0150372 0.0247927 0)
(-0.018814 0.0256579 0)
(-0.0226085 0.0257577 0)
(-0.0263308 0.0252322 0)
(-0.0299083 0.0242035 0)
(-0.033283 0.0227735 0)
(-0.0364099 0.0210251 0)
(-0.0392539 0.0190249 0)
(-0.0417881 0.0168259 0)
(-0.0439921 0.0144703 0)
(-0.0458506 0.0119923 0)
(-0.0473522 0.00942027 0)
(-0.0484885 0.00677789 0)
(-0.0492538 0.00408601 0)
(-0.0496442 0.00136352 0)
(-0.0496576 -0.00137176 0)
(-0.0492936 -0.0041022 0)
(-0.0485532 -0.00680965 0)
(-0.0474394 -0.0094746 0)
(-0.0459572 -0.0120753 0)
(-0.044114 -0.0145865 0)
(-0.0419208 -0.0169784 0)
(-0.0393923 -0.0192149 0)
(-0.0365489 -0.0212511 0)
(-0.0334173 -0.0230316 0)
(-0.030033 -0.024487 0)
(-0.0264419 -0.0255317 0)
(-0.0227026 -0.0260613 0)
(-0.0188892 -0.0259522 0)
(-0.0150928 -0.0250635 0)
(-0.011423 -0.0232433 0)
(-0.00800578 -0.0203406 0)
(-0.00497841 -0.0162227 0)
(-0.00247551 -0.0107982 0)
(-0.000607149 -0.00403963 0)
(-0.000654702 0.00468183 0)
(-0.00265984 0.0124496 0)
(-0.00533913 0.0186337 0)
(-0.00857416 0.0232901 0)
(-0.0122201 0.0265429 0)
(-0.0161297 0.0285577 0)
(-0.0201681 0.0295164 0)
(-0.024219 0.0295975 0)
(-0.0281859 0.0289642 0)
(-0.0319915 0.0277576 0)
(-0.0355748 0.0260955 0)
(-0.0388886 0.0240734 0)
(-0.0418973 0.0217679 0)
(-0.0445739 0.0192397 0)
(-0.0468985 0.016537 0)
(-0.0488564 0.0136987 0)
(-0.050437 0.0107565 0)
(-0.0516329 0.00773709 0)
(-0.0524388 0.0046633 0)
(-0.0528515 0.00155582 0)
(-0.052869 -0.00156597 0)
(-0.0524907 -0.00468298 0)
(-0.0517173 -0.00777545 0)
(-0.0505511 -0.010822 0)
(-0.0489961 -0.0137986 0)
(-0.0470589 -0.0166771 0)
(-0.0447492 -0.0194237 0)
(-0.0420811 -0.0219974 0)
(-0.0390741 -0.0243469 0)
(-0.0357553 -0.0264084 0)
(-0.0321606 -0.028102 0)
(-0.028338 -0.0293287 0)
(-0.0243494 -0.0299679 0)
(-0.020274 -0.0298762 0)
(-0.0162099 -0.0288895 0)
(-0.0122753 -0.02683 0)
(-0.00860729 -0.0235186 0)
(-0.00535475 -0.0187945 0)
(-0.00266394 -0.0125402 0)
(-0.000653982 -0.00470772 0)
(-0.000706543 0.0053939 0)
(-0.00286786 0.0143015 0)
(-0.00575326 0.0213616 0)
(-0.00923404 0.0266532 0)
(-0.0131526 0.0303295 0)
(-0.0173488 0.0325873 0)
(-0.0216762 0.0336395 0)
(-0.026009 0.0336933 0)
(-0.0302435 0.0329372 0)
(-0.0342971 0.0315336 0)
(-0.0381056 0.0296176 0)
(-0.0416201 0.0272988 0)
(-0.0448044 0.0246646 0)
(-0.0476317 0.0217841 0)
(-0.0500829 0.0187121 0)
(-0.0521447 0.0154921 0)
(-0.0538076 0.0121596 0)
(-0.0550654 0.00874366 0)
(-0.0559137 0.00526918 0)
(-0.05635 0.0017583 0)
(-0.0563726 -0.0017684 0)
(-0.0559806 -0.00529068 0)
(-0.0551744 -0.00878753 0)
(-0.0539552 -0.012236 0)
(-0.0523259 -0.0156099 0)
(-0.0502916 -0.0188783 0)
(-0.0478606 -0.0220035 0)
(-0.0450455 -0.0249391 0)
(-0.0418648 -0.0276271 0)
(-0.0383452 -0.0299944 0)
(-0.0345232 -0.0319495 0)
(-0.0304485 -0.0333788 0)
(-0.0261868 -0.0341433 0)
(-0.0218224 -0.0340779 0)
(-0.0174613 -0.0329929 0)
(-0.0132321 -0.0306816 0)
(-0.00928364 -0.0269345 0)
(-0.00577856 -0.0215603 0)
(-0.00287633 -0.0144141 0)
(-0.000706714 -0.00542645 0)
(-0.000765621 0.00616191 0)
(-0.0031049 0.0162977 0)
(-0.00622436 0.0243002 0)
(-0.00998304 0.0302728 0)
(-0.0142085 0.0343995 0)
(-0.0187257 0.0369115 0)
(-0.0233752 0.0380557 0)
(-0.0280202 0.0380711 0)
(-0.0325491 0.0371741 0)
(-0.0368736 0.0355507 0)
(-0.0409262 0.0333556 0)
(-0.0446564 0.0307136 0)
(-0.0480277 0.0277244 0)
(-0.0510143 0.0244661 0)
(-0.0535984 0.0210005 0)
(-0.0557684 0.0173761 0)
(-0.0575166 0.0136317 0)
(-0.0588384 0.00979902 0)
(-0.0597308 0.00590455 0)
(-0.060192 0.00197146 0)
(-0.0602207 -0.00197887 0)
(-0.0598161 -0.00592554 0)
(-0.0589776 -0.00984674 0)
(-0.0577054 -0.0137183 0)
(-0.0560007 -0.0175123 0)
(-0.0538668 -0.021195 0)
(-0.0513097 -0.024725 0)
(-0.0483401 -0.0280502 0)
(-0.0449751 -0.0311051 0)
(-0.04124 -0.0338068 0)
(-0.0371717 -0.0360509 0)
(-0.0328215 -0.0377071 0)
(-0.0282585 -0.0386164 0)
(-0.0235732 -0.0385889 0)
(-0.0188803 -0.0374066 0)
(-0.0143197 -0.034831 0)
(-0.0100544 -0.0306189 0)
(-0.00626257 -0.0245461 0)
(-0.00311933 -0.0164381 0)
(-0.000767053 -0.00620306 0)
(-0.000833607 0.00699421 0)
(-0.00337743 0.0184589 0)
(-0.00676473 0.0274786 0)
(-0.0108399 0.0341826 0)
(-0.015413 0.0387887 0)
(-0.0202917 0.0415657 0)
(-0.0253013 0.0427981 0)
(-0.030293 0.0427605 0)
(-0.0351461 0.0417002 0)
(-0.0397663 0.03983 0)
(-0.0440827 0.0373261 0)
(-0.0480438 0.0343306 0)
(-0.0516133 0.0309566 0)
(-0.0547668 0.0272922 0)
(-0.057489 0.0234064 0)
(-0.0597703 0.019353 0)
(-0.0616057 0.0151743 0)
(-0.0629927 0.0109041 0)
(-0.0639302 0.00656998 0)
(-0.0644173 0.0021958 0)
(-0.0644535 -0.00219696 0)
(-0.0640376 -0.00658731 0)
(-0.0631683 -0.0109532 0)
(-0.0618443 -0.0152699 0)
(-0.0600645 -0.019508 0)
(-0.0578298 -0.0236314 0)
(-0.0551434 -0.0275948 0)
(-0.0520132 -0.0313405 0)
(-0.0484537 -0.0347949 0)
(-0.0444886 -0.0378641 0)
(-0.0401542 -0.0404293 0)
(-0.035503 -0.0423419 0)
(-0.0306078 -0.0434198 0)
(-0.0255654 -0.0434456 0)
(-0.0205002 -0.0421695 0)
(-0.0155652 -0.0393174 0)
(-0.0109396 -0.0346088 0)
(-0.00681995 -0.0277833 0)
(-0.0033998 -0.0186343 0)
(-0.000836768 -0.00704642 0)
(-0.000912328 0.00790074 0)
(-0.00369251 0.0208098 0)
(-0.00738781 0.0309312 0)
(-0.0118249 0.0384225 0)
(-0.016793 0.0435387 0)
(-0.0220795 0.0465902 0)
(-0.0274923 0.0479039 0)
(-0.0328686 0.0477939 0)
(-0.0380778 0.0465428 0)
(-0.0430193 0.0443931 0)
(-0.0476192 0.0415455 0)
(-0.0518252 0.0381616 0)
(-0.0556022 0.0343689 0)
(-0.0589284 0.0302669 0)
(-0.0617913 0.0259323 0)
(-0.0641851 0.021424 0)
(-0.0661077 0.0167876 0)
(-0.0675597 0.0120586 0)
(-0.0685421 0.00726547 0)
(-0.0690558 0.00243165 0)
(-0.0691008 -0.00242188 0)
(-0.0686759 -0.00727486 0)
(-0.0677786 -0.0121058 0)
(-0.0664057 -0.01689 0)
(-0.0645535 -0.0215973 0)
(-0.0622194 -0.0261895 0)
(-0.0594031 -0.0306178 0)
(-0.0561086 -0.0348185 0)
(-0.0523467 -0.0387093 0)
(-0.0481384 -0.0421844 0)
(-0.0435185 -0.0451089 0)
(-0.0385402 -0.0473133 0)
(-0.0332795 -0.0485896 0)
(-0.02784 -0.0486894 0)
(-0.0223568 -0.0473264 0)
(-0.0169978 -0.0441866 0)
(-0.0119613 -0.0389478 0)
(-0.00746527 -0.0313092 0)
(-0.00372539 -0.0210292 0)
(-0.000917826 -0.00796719 0)
(-0.0010039 0.00889333 0)
(-0.00405831 0.0233791 0)
(-0.00810902 0.0346982 0)
(-0.0129611 0.0430385 0)
(-0.0183787 0.0486969 0)
(-0.0241257 0.0520304 0)
(-0.0299892 0.0534138 0)
(-0.035791 0.053206 0)
(-0.0413895 0.0517296 0)
(-0.0466777 0.049261 0)
(-0.0515791 0.0460287 0)
(-0.0560414 0.0422159 0)
(-0.0600322 0.0379666 0)
(-0.0635332 0.0333922 0)
(-0.0665363 0.0285777 0)
(-0.0690402 0.0235873 0)
(-0.0710474 0.0184695 0)
(-0.0725619 0.0132611 0)
(-0.0735878 0.0079901 0)
(-0.074128 0.00267918 0)
(-0.0741834 -0.00265231 0)
(-0.0737526 -0.00798584 0)
(-0.0728318 -0.0133014 0)
(-0.0714155 -0.0185754 0)
(-0.0694967 -0.0237775 0)
(-0.0670684 -0.0288683 0)
(-0.0641254 -0.0337954 0)
(-0.0606667 -0.0384893 0)
(-0.0566982 -0.0428587 0)
(-0.0522365 -0.0467843 0)
(-0.0473138 -0.0501132 0)
(-0.0419827 -0.0526526 0)
(-0.0363219 -0.0541649 0)
(-0.0304422 -0.0543659 0)
(-0.0244902 -0.0529278 0)
(-0.0186511 -0.0494913 0)
(-0.0131449 -0.0436867 0)
(-0.00821546 -0.0351678 0)
(-0.00410503 -0.0236544 0)
(-0.00101253 -0.00897809 0)
(-0.00111086 0.009986 0)
(-0.00448463 0.0262012 0)
(-0.00894665 0.0388263 0)
(-0.0142755 0.0480838 0)
(-0.0202053 0.0543171 0)
(-0.0264715 0.0579367 0)
(-0.0328379 0.0593717 0)
(-0.0391082 0.0590327 0)
(-0.0451293 0.0572881 0)
(-0.0507878 0.0544532 0)
(-0.0560054 0.0507876 0)
(-0.0607314 0.0464993 0)
(-0.0649373 0.0417506 0)
(-0.0686102 0.0366657 0)
(-0.071748 0.0313383 0)
(-0.0743554 0.0258378 0)
(-0.0764405 0.0202152 0)
(-0.078012 0.0145075 0)
(-0.0790779 0.00874175 0)
(-0.0796435 0.00293828 0)
(-0.0797109 -0.00288626 0)
(-0.0792786 -0.00871628 0)
(-0.0783414 -0.0145346 0)
(-0.0768905 -0.0203195 0)
(-0.074915 -0.0260421 0)
(-0.0724025 -0.0316622 0)
(-0.0693417 -0.0371246 0)
(-0.0657248 -0.042354 0)
(-0.0615508 -0.0472494 0)
(-0.0568305 -0.0516772 0)
(-0.0515912 -0.0554644 0)
(-0.0458837 -0.0583912 0)
(-0.0397885 -0.0601864 0)
(-0.033423 -0.0605246 0)
(-0.0269467 -0.0590303 0)
(-0.0205638 -0.0552915 0)
(-0.0145204 -0.0488844 0)
(-0.0090908 -0.0394109 0)
(-0.00454953 -0.0265471 0)
(-0.00112365 -0.0100943 0)
(-0.00123628 0.0111955 0)
(-0.00498338 0.0293162 0)
(-0.00992281 0.0433705 0)
(-0.0158003 0.0536194 0)
(-0.0223137 0.0604599 0)
(-0.0291648 0.064364 0)
(-0.0360899 0.0658242 0)
(-0.0428729 0.0653104 0)
(-0.0493483 0.0632441 0)
(-0.0553971 0.0599852 0)
(-0.0609402 0.0558294 0)
(-0.0659308 0.051012 0)
(-0.0703461 0.0457158 0)
(-0.074181 0.0400791 0)
(-0.0774413 0.0342043 0)
(-0.0801396 0.0281658 0)
(-0.082291 0.0220161 0)
(-0.0839103 0.0157915 0)
(-0.08501 0.00951672 0)
(-0.0855986 0.00320847 0)
(-0.0856798 -0.00312083 0)
(-0.0852518 -0.00946006 0)
(-0.0843077 -0.0157963 0)
(-0.0828352 -0.0221115 0)
(-0.0808183 -0.0283791 0)
(-0.0782382 -0.0345595 0)
(-0.0750756 -0.0405956 0)
(-0.0713141 -0.0464066 0)
(-0.0669437 -0.0518816 0)
(-0.0619666 -0.0568713 0)
(-0.0564032 -0.0611802 0)
(-0.0503001 -0.0645585 0)
(-0.0437379 -0.0666956 0)
(-0.03684 -0.0672186 0)
(-0.0297794 -0.0656963 0)
(-0.022782 -0.0616556 0)
(-0.0161238 -0.0546092 0)
(-0.0101159 -0.0440992 0)
(-0.00507212 -0.0297518 0)
(-0.0012546 -0.0113342 0)
(-0.00138397 0.012542 0)
(-0.00556919 0.0327721 0)
(-0.0110643 0.0483948 0)
(-0.0175742 0.0597153 0)
(-0.0247522 0.067193 0)
(-0.0322603 0.0713723 0)
(-0.0398029 0.0728193 0)
(-0.0471421 0.0720739 0)
(-0.0540997 0.0696193 0)
(-0.060552 0.0658669 0)
(-0.0664218 0.0611536 0)
(-0.0716684 0.0557461 0)
(-0.0762779 0.0498493 0)
(-0.0802554 0.0436165 0)
(-0.0836173 0.0371591 0)
(-0.0863862 0.0305554 0)
(-0.0885859 0.0238587 0)
(-0.0902387 0.0171032 0)
(-0.0913627 0.0103094 0)
(-0.0919702 0.00348884 0)
(-0.0920667 -0.00335205 0)
(-0.0916506 -0.0102085 0)
(-0.0907125 -0.0170736 0)
(-0.0892365 -0.0239348 0)
(-0.0872002 -0.0307697 0)
(-0.084577 -0.0375407 0)
(-0.0813379 -0.0441901 0)
(-0.0774556 -0.0506323 0)
(-0.0729083 -0.0567465 0)
(-0.0676867 -0.0623666 0)
(-0.061801 -0.0672724 0)
(-0.0552904 -0.0711796 0)
(-0.0482333 -0.0737328 0)
(-0.0407574 -0.0745031 0)
(-0.0330495 -0.0729942 0)
(-0.0253595 -0.0686604 0)
(-0.0179982 -0.06094 0)
(-0.0113206 -0.0493045 0)
(-0.00568898 -0.0333215 0)
(-0.00140954 -0.0127199 0)
(-0.00155854 0.0140499 0)
(-0.00625984 0.0366256 0)
(-0.0124033 0.0539738 0)
(-0.0196425 0.0664513 0)
(-0.0275764 0.0745916 0)
(-0.0358192 0.0790247 0)
(-0.0440391 0.0804046 0)
(-0.0519744 0.0793539 0)
(-0.0594345 0.0764282 0)
(-0.0662935 0.0720988 0)
(-0.072479 0.0667499 0)
(-0.07796 0.060683 0)
(-0.0827355 0.0541274 0)
(-0.0868239 0.0472521 0)
(-0.0902554 0.040177 0)
(-0.0930648 0.0329835 0)
(-0.0952869 0.0257239 0)
(-0.0969528 0.0184284 0)
(-0.0980872 0.0111117 0)
(-0.0987072 0.00377791 0)
(-0.0988204 -0.00357466 0)
(-0.0984253 -0.0109496 0)
(-0.0975102 -0.0183485 0)
(-0.0960544 -0.0257662 0)
(-0.0940286 -0.0331864 0)
(-0.0913966 -0.0405761 0)
(-0.0881181 -0.0478783 0)
(-0.0841518 -0.055004 0)
(-0.0794613 -0.0618227 0)
(-0.0740217 -0.0681513 0)
(-0.067829 -0.0737421 0)
(-0.0609107 -0.078272 0)
(-0.0533391 -0.0813338 0)
(-0.0452441 -0.0824332 0)
(-0.0368251 -0.0809966 0)
(-0.0283582 -0.0763918 0)
(-0.0201942 -0.0679674 0)
(-0.0127408 -0.0551108 0)
(-0.00641981 -0.0373198 0)
(-0.00159355 -0.0142783 0)
(-0.00176555 0.0157487 0)
(-0.00707678 0.0409447 0)
(-0.0139782 0.0601948 0)
(-0.022058 0.0739179 0)
(-0.0308487 0.0827371 0)
(-0.0399079 0.0873861 0)
(-0.0488625 0.0886246 0)
(-0.0574254 0.0871736 0)
(-0.0653959 0.0836744 0)
(-0.072649 0.0786683 0)
(-0.0791218 0.072593 0)
(-0.0847981 0.0657892 0)
(-0.089694 0.0585124 0)
(-0.0938459 0.0509474 0)
(-0.0973007 0.0432215 0)
(-0.100109 0.0354177 0)
(-0.102317 0.0275852 0)
(-0.103968 0.0197481 0)
(-0.105094 0.0119127 0)
(-0.105717 0.00407349 0)
(-0.105848 -0.00378192 0)
(-0.105485 -0.011668 0)
(-0.104614 -0.0195969 0)
(-0.103209 -0.0275739 0)
(-0.101232 -0.0355916 0)
(-0.0986378 -0.0436234 0)
(-0.0953708 -0.0516158 0)
(-0.0913739 -0.0594784 0)
(-0.0865918 -0.0670723 0)
(-0.08098 -0.0741968 0)
(-0.0745144 -0.080575 0)
(-0.0672059 -0.0858403 0)
(-0.059115 -0.0895257 0)
(-0.0503691 -0.0910606 0)
(-0.0411786 -0.0897787 0)
(-0.0318466 -0.0849435 0)
(-0.0227698 -0.0757948 0)
(-0.0144184 -0.0616169 0)
(-0.00728809 -0.0418228 0)
(-0.00181265 -0.0160423 0)
(-0.00201159 0.0176743 0)
(-0.00804527 0.0458099 0)
(-0.0158329 0.0671586 0)
(-0.0248798 0.082216 0)
(-0.0346362 0.0917159 0)
(-0.0445931 0.0965195 0)
(-0.0543313 0.0975152 0)
(-0.0635387 0.0955427 0)
(-0.0720073 0.0913445 0)
(-0.079619 0.0855434 0)
(-0.0863267 0.0786382 0)
(-0.0921353 0.0710124 0)
(-0.0970839 0.062949 0)
(-0.101232 0.054648 0)
(-0.104646 0.0462425 0)
(-0.107396 0.0378147 0)
(-0.109544 0.029408 0)
(-0.111143 0.0210375 0)
(-0.112235 0.0126983 0)
(-0.112848 0.00437256 0)
(-0.112996 -0.00396541 0)
(-0.112678 -0.0123437 0)
(-0.111876 -0.0207881 0)
(-0.110559 -0.0293169 0)
(-0.108681 -0.0379346 0)
(-0.106184 -0.0466247 0)
(-0.102997 -0.0553401 0)
(-0.0990423 -0.0639919 0)
(-0.0942433 -0.0724348 0)
(-0.0885298 -0.0804514 0)
(-0.0818518 -0.0877343 0)
(-0.0741957 -0.0938688 0)
(-0.0656031 -0.0983198 0)
(-0.0561924 -0.100427 0)
(-0.0461801 -0.0994128 0)
(-0.0358965 -0.0944145 0)
(-0.0257887 -0.0845373 0)
(-0.0164012 -0.0689372 0)
(-0.00832103 -0.0469213 0)
(-0.00207385 -0.0180519 0)
(-0.00230418 0.0198704 0)
(-0.00919417 0.0513162 0)
(-0.0180165 0.0749802 0)
(-0.0281702 0.0914553 0)
(-0.0390047 0.101615 0)
(-0.0499332 0.10648 0)
(-0.0604864 0.107097 0)
(-0.0703296 0.104449 0)
(-0.0792538 0.0993998 0)
(-0.0871558 0.0926657 0)
(-0.0940132 0.0848144 0)
(-0.0998601 0.0762755 0)
(-0.104765 0.0673598 0)
(-0.108817 0.0582806 0)
(-0.112106 0.0491743 0)
(-0.114724 0.0401187 0)
(-0.11675 0.031148 0)
(-0.11825 0.022265 0)
(-0.119276 0.0134505 0)
(-0.119862 0.00467106 0)
(-0.120025 -0.00411501 0)
(-0.119764 -0.0129524 0)
(-0.119061 -0.0218835 0)
(-0.117878 -0.0309429 0)
(-0.116159 -0.0401507 0)
(-0.113833 -0.0495042 0)
(-0.110813 -0.0589669 0)
(-0.106998 -0.0684551 0)
(-0.102285 -0.077821 0)
(-0.0965722 -0.0868325 0)
(-0.0897769 -0.0951514 0)
(-0.0818516 -0.102312 0)
(-0.072809 -0.107701 0)
(-0.0627485 -0.110554 0)
(-0.0518856 -0.109962 0)
(-0.0405739 -0.104904 0)
(-0.0293151 -0.0943197 0)
(-0.0187401 -0.0772022 0)
(-0.00954874 -0.0527225 0)
(-0.00238487 -0.0203558 0)
(-0.00265156 0.0223894 0)
(-0.0105548 0.0575747 0)
(-0.0205797 0.0837879 0)
(-0.031989 0.10175 0)
(-0.0440088 0.112515 0)
(-0.055963 0.117304 0)
(-0.0673312 0.117363 0)
(-0.0777613 0.113848 0)
(-0.0870538 0.107766 0)
(-0.0951323 0.0999408 0)
(-0.102011 0.0910164 0)
(-0.107762 0.0814705 0)
(-0.112493 0.0716403 0)
(-0.116326 0.0617493 0)
(-0.119382 0.0519327 0)
(-0.121774 0.0422594 0)
(-0.1236 0.0327503 0)
(-0.124942 0.0233918 0)
(-0.125861 0.0141469 0)
(-0.126397 0.00496363 0)
(-0.12657 -0.00421897 0)
(-0.126382 -0.013465 0)
(-0.12581 -0.0228366 0)
(-0.124812 -0.0323881 0)
(-0.123324 -0.0421592 0)
(-0.12126 -0.0521652 0)
(-0.118514 -0.0623856 0)
(-0.114963 -0.0727473 0)
(-0.110471 -0.083105 0)
(-0.104902 -0.0932163 0)
(-0.0981293 -0.102714 0)
(-0.0900619 -0.111079 0)
(-0.0806701 -0.117614 0)
(-0.0700211 -0.121431 0)
(-0.0583163 -0.121464 0)
(-0.0459253 -0.116501 0)
(-0.0334049 -0.105271 0)
(-0.0214847 -0.0865562 0)
(-0.0110021 -0.0593506 0)
(-0.00275364 -0.0230125 0)
(-0.00306202 0.0252942 0)
(-0.0121586 0.0647118 0)
(-0.0235691 0.0937193 0)
(-0.0363817 0.11321 0)
(-0.0496735 0.124476 0)
(-0.062669 0.128997 0)
(-0.0747991 0.128263 0)
(-0.0857065 0.123646 0)
(-0.0952166 0.116318 0)
(-0.103296 0.107226 0)
(-0.11001 0.0970953 0)
(-0.115482 0.0864516 0)
(-0.119866 0.0756546 0)
(-0.123324 0.0649325 0)
(-0.126009 0.0544132 0)
(-0.12806 0.0441513 0)
(-0.129594 0.0341488 0)
(-0.130707 0.0243715 0)
(-0.131467 0.014761 0)
(-0.131924 0.00524333 0)
(-0.132101 -0.00426425 0)
(-0.131998 -0.0138481 0)
(-0.131592 -0.0235931 0)
(-0.130837 -0.0335768 0)
(-0.129659 -0.0438624 0)
(-0.127962 -0.0544887 0)
(-0.12562 -0.0654567 0)
(-0.122486 -0.0767111 0)
(-0.11839 -0.0881166 0)
(-0.113153 -0.0994273 0)
(-0.1066 -0.110253 0)
(-0.0985809 -0.12002 0)
(-0.0890096 -0.127941 0)
(-0.0779015 -0.132991 0)
(-0.0654255 -0.133916 0)
(-0.0519525 -0.129269 0)
(-0.038089 -0.11751 0)
(-0.0246733 -0.0971514 0)
(-0.0127086 -0.0669462 0)
(-0.00318722 -0.026091 0)
(-0.00354283 0.028658 0)
(-0.0140323 0.0728675 0)
(-0.0270165 0.104913 0)
(-0.0413611 0.125928 0)
(-0.0559659 0.13752 0)
(-0.06995 0.141505 0)
(-0.0827066 0.139683 0)
(-0.0938927 0.133679 0)
(-0.103382 0.124863 0)
(-0.111207 0.114317 0)
(-0.1175 0.102848 0)
(-0.12245 0.0910278 0)
(-0.126266 0.0792303 0)
(-0.129154 0.0676802 0)
(-0.131302 0.0564901 0)
(-0.132874 0.0456929 0)
(-0.134006 0.035266 0)
(-0.134804 0.02515 0)
(-0.135348 0.0152612 0)
(-0.135689 0.00550118 0)
(-0.135856 -0.00423735 0)
(-0.135849 -0.0140652 0)
(-0.135644 -0.0240923 0)
(-0.135192 -0.0344226 0)
(-0.134414 -0.0451468 0)
(-0.133201 -0.0563326 0)
(-0.131412 -0.0680094 0)
(-0.128876 -0.0801482 0)
(-0.12539 -0.0926333 0)
(-0.120728 -0.105226 0)
(-0.114657 -0.117521 0)
(-0.106959 -0.128899 0)
(-0.0974699 -0.138478 0)
(-0.0861299 -0.145083 0)
(-0.0730488 -0.147239 0)
(-0.058574 -0.143215 0)
(-0.0433467 -0.131129 0)
(-0.0283174 -0.109135 0)
(-0.0146848 -0.0756607 0)
(-0.00368987 -0.0296709 0)
(-0.00409811 0.0325647 0)
(-0.0161897 0.0821884 0)
(-0.0309207 0.117493 0)
(-0.0468757 0.13995 0)
(-0.0627497 0.151598 0)
(-0.0775594 0.154688 0)
(-0.0906831 0.151407 0)
(-0.101825 0.143688 0)
(-0.110939 0.133121 0)
(-0.118151 0.120932 0)
(-0.123682 0.108009 0)
(-0.127799 0.0949577 0)
(-0.130773 0.0821561 0)
(-0.132857 0.0698133 0)
(-0.134273 0.0580164 0)
(-0.135208 0.0467678 0)
(-0.135811 0.0360143 0)
(-0.136201 0.0256663 0)
(-0.136459 0.0156119 0)
(-0.136644 0.00572564 0)
(-0.136782 -0.0041255 0)
(-0.136877 -0.0140783 0)
(-0.136905 -0.0242694 0)
(-0.136815 -0.0348313 0)
(-0.136526 -0.045886 0)
(-0.135922 -0.0575348 0)
(-0.134851 -0.0698431 0)
(-0.13312 -0.082818 0)
(-0.130496 -0.0963756 0)
(-0.126708 -0.110299 0)
(-0.121459 -0.124183 0)
(-0.114451 -0.137374 0)
(-0.105423 -0.148902 0)
(-0.0942119 -0.157433 0)
(-0.0808312 -0.161242 0)
(-0.0655665 -0.158252 0)
(-0.0490637 -0.146155 0)
(-0.0323762 -0.122627 0)
(-0.0169239 -0.0856458 0)
(-0.00426 -0.0338403 0)
(-0.00472545 0.0371063 0)
(-0.018618 0.0928145 0)
(-0.0352186 0.131539 0)
(-0.0527621 0.155241 0)
(-0.0697179 0.166545 0)
(-0.0850201 0.168272 0)
(-0.0980748 0.163087 0)
(-0.108681 0.153285 0)
(-0.116919 0.140699 0)
(-0.123037 0.126697 0)