/*--------------------------------*- C++ -*----------------------------------*\
| =========                 |                                                 |
| \\      /  F ield         | OpenFOAM: The Open Source CFD Toolbox           |
|  \\    /   O peration     | Version:  4.1                                   |
|   \\  /    A nd           | Web:      www.OpenFOAM.org                      |
|    \\/     M anipulation  |                                                 |
\*---------------------------------------------------------------------------*/
FoamFile
{
    version     2.0;
    format      ascii;
    class       volVectorField;
    location    "0.1665";
    object      U;
}
// * * * * * * * * * * * * * * * * * * * * * * * * * * * * * * * * * * * * * //

dimensions      [0 1 -1 0 0 0 0];

internalField   nonuniform List<vector> 
6400
(
(8.03169e-06 -7.99669e-06 0)
(3.03185e-05 -1.16507e-05 0)
(4.85851e-05 -8.09913e-06 0)
(5.66531e-05 1.19661e-06 0)
(5.02884e-05 1.42226e-05 0)
(2.69994e-05 2.94035e-05 0)
(-1.44424e-05 4.55918e-05 0)
(-7.43467e-05 6.19736e-05 0)
(-0.000152373 7.79776e-05 0)
(-0.000247725 9.32066e-05 0)
(-0.000359294 0.000107389 0)
(-0.000485759 0.000120342 0)
(-0.000625661 0.000131949 0)
(-0.000777457 0.000142141 0)
(-0.000939557 0.000150881 0)
(-0.00111036 0.00015816 0)
(-0.00128825 0.000163986 0)
(-0.00147167 0.000168382 0)
(-0.00165906 0.00017138 0)
(-0.00184891 0.000173022 0)
(-0.00203976 0.000173352 0)
(-0.00223022 0.000172422 0)
(-0.00241894 0.000170285 0)
(-0.00260462 0.000166996 0)
(-0.00278604 0.000162614 0)
(-0.00296203 0.000157196 0)
(-0.00313151 0.000150803 0)
(-0.00329344 0.000143494 0)
(-0.00344684 0.000135331 0)
(-0.00359083 0.000126376 0)
(-0.00372457 0.000116689 0)
(-0.0038473 0.000106333 0)
(-0.00395831 9.53719e-05 0)
(-0.00405699 8.38681e-05 0)
(-0.00414278 7.18861e-05 0)
(-0.00421519 5.94906e-05 0)
(-0.0042738 4.67475e-05 0)
(-0.00431827 3.37234e-05 0)
(-0.00434834 2.04861e-05 0)
(-0.00436381 7.10449e-06 0)
(-0.00436455 -6.35154e-06 0)
(-0.00435053 -1.98108e-05 0)
(-0.00432179 -3.32009e-05 0)
(-0.00427843 -4.64483e-05 0)
(-0.00422065 -5.94784e-05 0)
(-0.00414874 -7.22157e-05 0)
(-0.00406305 -8.45835e-05 0)
(-0.00396403 -9.65046e-05 0)
(-0.0038522 -0.000107901 0)
(-0.00372818 -0.000118696 0)
(-0.00359268 -0.00012881 0)
(-0.00344647 -0.000138166 0)
(-0.00329042 -0.000146687 0)
(-0.00312548 -0.000154297 0)
(-0.00295268 -0.000160923 0)
(-0.00277314 -0.000166492 0)
(-0.00258805 -0.000170935 0)
(-0.00239867 -0.000174186 0)
(-0.00220633 -0.000176183 0)
(-0.00201243 -0.000176869 0)
(-0.00181843 -0.000176192 0)
(-0.00162584 -0.000174106 0)
(-0.00143622 -0.000170575 0)
(-0.00125117 -0.000165572 0)
(-0.0010723 -0.000159079 0)
(-0.000901256 -0.000151094 0)
(-0.000739664 -0.000141632 0)
(-0.000589137 -0.000130729 0)
(-0.00045124 -0.000118449 0)
(-0.000327464 -0.000104892 0)
(-0.000219179 -9.02067e-05 0)
(-0.000127584 -7.46067e-05 0)
(-5.36364e-05 -5.83936e-05 0)
(2.05451e-06 -4.19909e-05 0)
(3.9358e-05 -2.59902e-05 0)
(5.88112e-05 -1.12148e-05 0)
(6.18716e-05 1.1967e-06 0)
(5.12364e-05 9.70965e-06 0)
(3.1275e-05 1.24144e-05 0)
(8.16676e-06 8.10014e-06 0)
(1.18143e-05 -3.02582e-05 0)
(4.56149e-05 -4.51329e-05 0)
(6.53792e-05 -2.70148e-05 0)
(5.68123e-05 1.37677e-05 0)
(9.86085e-06 6.89977e-05 0)
(-8.16089e-05 0.000132549 0)
(-0.000220813 0.000199958 0)
(-0.000408747 0.000268021 0)
(-0.000644761 0.000334465 0)
(-0.000927 0.000397689 0)
(-0.00125274 0.000456586 0)
(-0.00161863 0.000510405 0)
(-0.0020209 0.000558656 0)
(-0.0024555 0.00060104 0)
(-0.0029182 0.0006374 0)
(-0.00340468 0.000667685 0)
(-0.00391061 0.000691921 0)
(-0.00443166 0.000710191 0)
(-0.00496358 0.000722624 0)
(-0.0055022 0.000729383 0)
(-0.00604347 0.000730653 0)
(-0.00658347 0.000726641 0)
(-0.00711842 0.000717565 0)
(-0.00764471 0.000703657 0)
(-0.00815889 0.000685154 0)
(-0.00865768 0.0006623 0)
(-0.00913797 0.000635345 0)
(-0.00959683 0.00060454 0)
(-0.0100315 0.000570141 0)
(-0.0104395 0.000532406 0)
(-0.0108184 0.000491594 0)
(-0.0111661 0.000447967 0)
(-0.0114806 0.000401791 0)
(-0.01176 0.000353332 0)
(-0.0120029 0.000302862 0)
(-0.0122078 0.000250653 0)
(-0.0123736 0.000196984 0)
(-0.0124993 0.000142135 0)
(-0.0125841 8.6392e-05 0)
(-0.0126275 3.00456e-05 0)
(-0.0126292 -2.66093e-05 0)
(-0.012589 -8.32731e-05 0)
(-0.0125071 -0.000139641 0)
(-0.0123839 -0.000195403 0)
(-0.0122198 -0.000250247 0)
(-0.0120157 -0.000303853 0)
(-0.0117726 -0.000355901 0)
(-0.0114918 -0.000406066 0)
(-0.0111749 -0.000454023 0)
(-0.0108234 -0.000499443 0)
(-0.0104396 -0.000542002 0)
(-0.0100255 -0.000581373 0)
(-0.0095836 -0.000617236 0)
(-0.00911664 -0.000649274 0)
(-0.0086275 -0.000677179 0)
(-0.00811933 -0.00070065 0)
(-0.00759547 -0.000719399 0)
(-0.00705945 -0.000733153 0)
(-0.00651501 -0.000741654 0)
(-0.00596605 -0.000744666 0)
(-0.00541663 -0.000741977 0)
(-0.00487096 -0.000733404 0)
(-0.00433333 -0.000718796 0)
(-0.00380814 -0.000698044 0)
(-0.00329984 -0.000671086 0)
(-0.00281287 -0.000637918 0)
(-0.00235165 -0.00059861 0)
(-0.00192052 -0.00055332 0)
(-0.00152364 -0.000502321 0)
(-0.00116491 -0.000446036 0)
(-0.000847874 -0.00038508 0)
(-0.000575574 -0.000320332 0)
(-0.000350343 -0.00025302 0)
(-0.000173573 -0.000184846 0)
(-4.53936e-05 -0.000118166 0)
(3.57446e-05 -5.62164e-05 0)
(7.36046e-05 -3.42192e-06 0)
(7.48028e-05 3.42512e-05 0)
(4.97126e-05 4.89599e-05 0)
(1.26754e-05 3.11381e-05 0)
(8.46354e-06 -4.87013e-05 0)
(2.82843e-05 -6.49612e-05 0)
(2.11449e-05 -1.93877e-05 0)
(-3.13976e-05 6.84133e-05 0)
(-0.000142782 0.000183346 0)
(-0.000321461 0.000314076 0)
(-0.000572035 0.000452207 0)
(-0.000896055 0.00059159 0)
(-0.00129273 0.000727763 0)
(-0.00175948 0.000857523 0)
(-0.0022924 0.000978599 0)
(-0.0028866 0.00108942 0)
(-0.0035365 0.00118892 0)
(-0.00423602 0.00127644 0)
(-0.00497876 0.0013516 0)
(-0.00575813 0.00141424 0)
(-0.00656747 0.00146437 0)
(-0.00740011 0.00150212 0)
(-0.00824943 0.00152773 0)
(-0.00910894 0.0015415 0)
(-0.00997229 0.0015438 0)
(-0.0108333 0.00153504 0)
(-0.0116861 0.00151566 0)
(-0.012525 0.00148613 0)
(-0.0133444 0.00144694 0)
(-0.0141392 0.00139859 0)
(-0.0149044 0.0013416 0)
(-0.0156355 0.00127649 0)
(-0.016328 0.0012038 0)
(-0.0169779 0.00112407 0)
(-0.0175814 0.00103784 0)
(-0.0181351 0.000945672 0)
(-0.0186358 0.000848121 0)
(-0.0190807 0.000745754 0)
(-0.0194673 0.000639142 0)
(-0.0197934 0.000528866 0)
(-0.020057 0.000415512 0)
(-0.0202568 0.000299678 0)
(-0.0203914 0.000181968 0)
(-0.0204601 6.29966e-05 0)
(-0.0204622 -5.6611e-05 0)
(-0.0203978 -0.000176221 0)
(-0.0202668 -0.000295189 0)
(-0.02007 -0.000412861 0)
(-0.0198082 -0.000528575 0)
(-0.0194828 -0.000641661 0)
(-0.0190953 -0.000751443 0)
(-0.0186479 -0.000857237 0)
(-0.0181429 -0.000958359 0)
(-0.0175832 -0.00105412 0)
(-0.0169718 -0.00114385 0)
(-0.0163125 -0.00122685 0)
(-0.0156089 -0.00130246 0)
(-0.0148655 -0.00137002 0)
(-0.0140869 -0.00142888 0)
(-0.0132779 -0.00147843 0)
(-0.0124439 -0.00151807 0)
(-0.0115905 -0.00154723 0)
(-0.0107236 -0.0015654 0)
(-0.00984918 -0.00157209 0)
(-0.00897374 -0.00156687 0)
(-0.00810381 -0.00154938 0)
(-0.0072461 -0.00151934 0)
(-0.00640745 -0.00147653 0)
(-0.00559473 -0.00142087 0)
(-0.00481481 -0.00135237 0)
(-0.00407447 -0.00127123 0)
(-0.00338031 -0.00117781 0)
(-0.00273862 -0.00107273 0)
(-0.00215527 -0.000956906 0)
(-0.00163551 -0.00083164 0)
(-0.00118378 -0.00069876 0)
(-0.000803415 -0.000560768 0)
(-0.000496323 -0.000421072 0)
(-0.000262556 -0.000284284 0)
(-9.97808e-05 -0.000156618 0)
(-2.6264e-06 -4.64012e-05 0)
(3.80414e-05 3.53111e-05 0)
(3.6136e-05 7.40285e-05 0)
(1.02639e-05 5.12687e-05 0)
(-5.63889e-07 -5.72802e-05 0)
(-1.14323e-05 -5.71096e-05 0)
(-6.48093e-05 3.28809e-05 0)
(-0.000180822 0.000184841 0)
(-0.000374449 0.000377094 0)
(-0.000655227 0.000593062 0)
(-0.00102839 0.000820202 0)
(-0.00149569 0.00104912 0)
(-0.00205608 0.00127286 0)
(-0.00270638 0.00148631 0)
(-0.00344171 0.00168576 0)
(-0.00425595 0.00186858 0)
(-0.00514202 0.00203296 0)
(-0.00609219 0.00217771 0)
(-0.00709826 0.00230213 0)
(-0.00815174 0.00240585 0)
(-0.00924396 0.00248884 0)
(-0.0103662 0.00255123 0)
(-0.0115099 0.00259337 0)
(-0.0126665 0.00261571 0)
(-0.0138276 0.00261883 0)
(-0.0149851 0.00260337 0)
(-0.016131 0.00257005 0)
(-0.0172579 0.00251964 0)
(-0.0183585 0.00245292 0)
(-0.0194258 0.00237074 0)
(-0.0204533 0.00227396 0)
(-0.0214347 0.00216345 0)
(-0.0223642 0.00204011 0)
(-0.0232364 0.00190485 0)
(-0.0240463 0.00175859 0)
(-0.0247893 0.00160227 0)
(-0.025461 0.00143683 0)
(-0.0260578 0.00126324 0)
(-0.0265762 0.00108247 0)
(-0.0270133 0.000895493 0)
(-0.0273667 0.000703318 0)
(-0.0276342 0.000506955 0)
(-0.0278144 0.000307434 0)
(-0.0279059 0.000105799 0)
(-0.0279083 -9.68896e-05 0)
(-0.0278212 -0.000299555 0)
(-0.027645 -0.000501104 0)
(-0.0273804 -0.00070043 0)
(-0.0270287 -0.000896411 0)
(-0.0265916 -0.00108791 0)
(-0.0260714 -0.00127379 0)
(-0.0254708 -0.0014529 0)
(-0.0247931 -0.00162408 0)
(-0.024042 -0.00178618 0)
(-0.0232217 -0.00193804 0)
(-0.0223371 -0.00207854 0)
(-0.0213932 -0.00220654 0)
(-0.0203959 -0.00232094 0)
(-0.0193512 -0.00242067 0)
(-0.0182658 -0.00250471 0)
(-0.0171467 -0.00257206 0)
(-0.0160013 -0.00262179 0)
(-0.0148374 -0.00265305 0)
(-0.013663 -0.00266505 0)
(-0.0124867 -0.00265711 0)
(-0.011317 -0.00262865 0)
(-0.0101629 -0.00257923 0)
(-0.00903309 -0.00250855 0)
(-0.00793674 -0.00241652 0)
(-0.00688274 -0.00230322 0)
(-0.00587987 -0.00216904 0)
(-0.00493665 -0.00201466 0)
(-0.00406115 -0.00184117 0)
(-0.00326085 -0.00165016 0)
(-0.00254239 -0.00144383 0)
(-0.00191137 -0.00122522 0)
(-0.00137193 -0.000998393 0)
(-0.000926477 -0.000768784 0)
(-0.000575121 -0.000543593 0)
(-0.000315167 -0.000332315 0)
(-0.000140429 -0.000147409 0)
(-4.05137e-05 -5.09098e-06 0)
(2.04451e-07 7.3725e-05 0)
(2.19063e-06 6.2508e-05 0)
(-1.33244e-05 -5.18339e-05 0)
(-6.56306e-05 -1.16066e-05 0)
(-0.00017809 0.000143221 0)
(-0.000371059 0.000378119 0)
(-0.000659759 0.000665639 0)
(-0.00105379 0.000984328 0)
(-0.00155832 0.0013176 0)
(-0.00217483 0.00165278 0)
(-0.00290182 0.00198026 0)
(-0.00373542 0.00229283 0)
(-0.00466987 0.00258518 0)
(-0.00569795 0.00285345 0)
(-0.00681132 0.0030949 0)
(-0.00800084 0.00330768 0)
(-0.00925677 0.00349066 0)
(-0.010569 0.00364321 0)
(-0.0119271 0.00376515 0)
(-0.0133207 0.00385661 0)
(-0.0147394 0.00391802 0)
(-0.0161729 0.00394999 0)
(-0.0176109 0.00395331 0)
(-0.0190437 0.00392889 0)
(-0.0204617 0.00387776 0)
(-0.0218555 0.00380102 0)
(-0.0232163 0.00369985 0)
(-0.0245357 0.00357547 0)
(-0.0258055 0.00342914 0)
(-0.0270182 0.00326219 0)
(-0.0281666 0.00307593 0)
(-0.029244 0.00287174 0)
(-0.0302443 0.002651 0)
(-0.0311617 0.0024151 0)
(-0.0319911 0.00216549 0)
(-0.0327278 0.00190359 0)
(-0.0333676 0.00163089 0)
(-0.033907 0.00134886 0)
(-0.0343429 0.00105902 0)
(-0.0346727 0.000762893 0)
(-0.0348946 0.000462035 0)
(-0.0350071 0.000158022 0)
(-0.0350095 -0.000147542 0)
(-0.0349014 -0.000453035 0)
(-0.0346834 -0.00075681 0)
(-0.0343562 -0.0010572 0)
(-0.0339215 -0.00135251 0)
(-0.0333815 -0.00164104 0)
(-0.0327389 -0.00192107 0)
(-0.0319971 -0.00219088 0)
(-0.0311602 -0.00244873 0)
(-0.0302326 -0.0026929 0)
(-0.0292198 -0.00292167 0)
(-0.0281274 -0.00313333 0)
(-0.0269619 -0.00332622 0)
(-0.0257302 -0.0034987 0)
(-0.02444 -0.00364917 0)
(-0.0230993 -0.00377611 0)
(-0.0217166 -0.00387807 0)
(-0.020301 -0.00395369 0)
(-0.0188619 -0.00400171 0)
(-0.0174094 -0.004021 0)
(-0.0159535 -0.00401057 0)
(-0.0145047 -0.00396963 0)
(-0.0130738 -0.00389757 0)
(-0.0116715 -0.003794 0)
(-0.0103086 -0.00365885 0)
(-0.0089958 -0.00349235 0)
(-0.00774371 -0.00329513 0)
(-0.00656244 -0.0030683 0)
(-0.00546159 -0.00281356 0)
(-0.00445 -0.0025333 0)
(-0.00353555 -0.00223084 0)
(-0.00272482 -0.0019106 0)
(-0.00202278 -0.00157842 0)
(-0.00143238 -0.00124195 0)
(-0.000954082 -0.000911152 0)
(-0.000585294 -0.000598865 0)
(-0.000319748 -0.000321606 0)
(-0.000146805 -0.000100433 0)
(-5.04105e-05 3.80398e-05 0)
(-9.66868e-06 6.0667e-05 0)
(-2.83482e-05 -2.9833e-05 0)
(-0.000128632 7.7905e-05 0)
(-0.00030831 0.000320569 0)
(-0.000587157 0.000658557 0)
(-0.000979754 0.00105965 0)
(-0.001495 0.00149813 0)
(-0.00213737 0.00195368 0)
(-0.00290766 0.00241046 0)
(-0.00380361 0.00285624 0)
(-0.00482053 0.00328167 0)
(-0.00595174 0.00367971 0)
(-0.00718896 0.00404516 0)
(-0.00852273 0.00437426 0)
(-0.00994264 0.00466441 0)
(-0.0114376 0.00491392 0)
(-0.012996 0.00512183 0)
(-0.0146061 0.00528779 0)
(-0.0162559 0.00541188 0)
(-0.0179335 0.00549457 0)
(-0.0196268 0.00553663 0)
(-0.0213243 0.00553907 0)
(-0.0230145 0.0055031 0)
(-0.0246863 0.00543008 0)
(-0.0263289 0.0053215 0)
(-0.027932 0.00517894 0)
(-0.0294858 0.00500409 0)
(-0.0309808 0.00479868 0)
(-0.0324083 0.00456452 0)
(-0.0337597 0.00430344 0)
(-0.0350274 0.00401734 0)
(-0.0362041 0.00370814 0)
(-0.0372832 0.0033778 0)
(-0.0382585 0.00302831 0)
(-0.0391247 0.00266169 0)
(-0.0398768 0.00227998 0)
(-0.0405108 0.00188528 0)
(-0.0410229 0.00147967 0)
(-0.0414104 0.00106532 0)
(-0.0416708 0.0006444 0)
(-0.0418027 0.00021911 0)
(-0.041805 -0.000208308 0)
(-0.0416775 -0.000635582 0)
(-0.0414207 -0.00106041 0)
(-0.0410356 -0.00148046 0)
(-0.0405242 -0.00189338 0)
(-0.0398889 -0.00229679 0)
(-0.0391331 -0.0026883 0)
(-0.0382607 -0.0030655 0)
(-0.0372764 -0.003426 0)
(-0.0361856 -0.00376738 0)
(-0.0349945 -0.00408727 0)
(-0.0337096 -0.00438331 0)
(-0.0323387 -0.0046532 0)
(-0.0308898 -0.00489466 0)
(-0.0293717 -0.00510552 0)
(-0.0277937 -0.00528368 0)
(-0.0261659 -0.00542715 0)
(-0.0244987 -0.00553408 0)
(-0.0228032 -0.00560275 0)
(-0.0210907 -0.00563167 0)
(-0.0193731 -0.00561951 0)
(-0.0176625 -0.00556522 0)
(-0.0159711 -0.00546803 0)
(-0.0143115 -0.0053275 0)
(-0.0126959 -0.0051436 0)
(-0.0111368 -0.00491673 0)
(-0.00964609 -0.00464788 0)
(-0.0082354 -0.00433865 0)
(-0.00691569 -0.00399144 0)
(-0.00569704 -0.00360961 0)
(-0.00458843 -0.00319768 0)
(-0.00359744 -0.00276161 0)
(-0.00272989 -0.00230913 0)
(-0.00198947 -0.0018502 0)
(-0.00137728 -0.00139752 0)
(-0.000891277 -0.000967186 0)
(-0.000525741 -0.000579498 0)
(-0.000270555 -0.00025981 0)
(-0.0001101 -3.95142e-05 0)
(-2.38617e-05 4.31497e-05 0)
(-4.46114e-05 1.01243e-05 0)
(-0.00019649 0.000215227 0)
(-0.00044815 0.000570571 0)
(-0.000818375 0.00103292 0)
(-0.00132056 0.00156632 0)
(-0.00196235 0.00214143 0)
(-0.00274703 0.00273469 0)
(-0.00367431 0.00332735 0)
(-0.00474092 0.00390467 0)
(-0.00594115 0.00445521 0)
(-0.00726729 0.00497019 0)
(-0.00871002 0.00544302 0)
(-0.0102588 0.00586884 0)
(-0.0119019 0.00624424 0)
(-0.0136272 0.00656694 0)
(-0.0154217 0.00683558 0)
(-0.0172724 0.00704957 0)
(-0.0191659 0.00720892 0)
(-0.0210888 0.00731413 0)
(-0.0230279 0.00736613 0)
(-0.02497 0.00736615 0)
(-0.0269025 0.0073157 0)
(-0.0288127 0.00721651 0)
(-0.0306887 0.00707048 0)
(-0.0325188 0.00687966 0)
(-0.0342919 0.00664622 0)
(-0.0359974 0.00637243 0)
(-0.0376253 0.00606064 0)
(-0.0391662 0.00571328 0)
(-0.0406112 0.00533282 0)
(-0.0419523 0.00492181 0)
(-0.0431818 0.00448282 0)
(-0.044293 0.0040185 0)
(-0.0452797 0.0035315 0)
(-0.0461363 0.00302455 0)
(-0.0468582 0.00250041 0)
(-0.0474413 0.00196188 0)
(-0.0478823 0.00141179 0)
(-0.0481786 0.000853033 0)
(-0.0483285 0.000288539 0)
(-0.0483308 -0.000278725 0)
(-0.0481854 -0.000845749 0)
(-0.0478926 -0.00140948 0)
(-0.0474539 -0.00196684 0)
(-0.0468713 -0.00251471 0)
(-0.0461477 -0.00304995 0)
(-0.0452868 -0.00356939 0)
(-0.044293 -0.00406987 0)
(-0.0431718 -0.00454822 0)
(-0.0419292 -0.00500126 0)
(-0.0405721 -0.00542588 0)
(-0.0391082 -0.00581898 0)
(-0.0375458 -0.00617751 0)
(-0.0358943 -0.00649853 0)
(-0.0341634 -0.00677919 0)
(-0.0323637 -0.00701673 0)
(-0.0305065 -0.00720859 0)
(-0.0286035 -0.00735236 0)
(-0.0266671 -0.00744585 0)
(-0.0247101 -0.0074871 0)
(-0.0227457 -0.00747448 0)
(-0.0207875 -0.00740665 0)
(-0.0188492 -0.00728268 0)
(-0.0169446 -0.00710209 0)
(-0.0150877 -0.0068649 0)
(-0.013292 -0.00657177 0)
(-0.0115711 -0.00622405 0)
(-0.00993776 -0.00582392 0)
(-0.00840418 -0.00537458 0)
(-0.00698164 -0.00488042 0)
(-0.00568021 -0.00434724 0)
(-0.00450848 -0.0037826 0)
(-0.00347324 -0.00319618 0)
(-0.00257912 -0.00260019 0)
(-0.00182813 -0.00201 0)
(-0.00121922 -0.00144475 0)
(-0.000747668 -0.000928098 0)
(-0.000404446 -0.000489078 0)
(-0.000174918 -0.000162898 0)
(-3.93633e-05 8.48078e-06 0)
(-6.14298e-05 6.86668e-05 0)
(-0.000266543 0.000402331 0)
(-0.000592577 0.000896421 0)
(-0.00105718 0.00150527 0)
(-0.00167225 0.00219009 0)
(-0.0024438 0.00291866 0)
(-0.00337358 0.00366463 0)
(-0.00445988 0.00440667 0)
(-0.00569814 0.00512776 0)
(-0.00708147 0.00581447 0)
(-0.008601 0.00645635 0)
(-0.0102463 0.00704543 0)
(-0.0120057 0.00757574 0)
(-0.0138664 0.00804303 0)
(-0.015815 0.00844437 0)
(-0.0178374 0.00877799 0)
(-0.0199193 0.00904304 0)
(-0.0220462 0.00923942 0)
(-0.0242034 0.00936768 0)
(-0.0263765 0.00942887 0)
(-0.028551 0.00942445 0)
(-0.030713 0.00935626 0)
(-0.0328487 0.0092264 0)
(-0.034945 0.00903723 0)
(-0.036989 0.00879129 0)
(-0.0389685 0.00849129 0)
(-0.0408718 0.00814008 0)
(-0.042688 0.00774061 0)
(-0.0444066 0.00729593 0)
(-0.046018 0.0068092 0)
(-0.0475131 0.00628362 0)
(-0.0488835 0.00572248 0)
(-0.0501219 0.00512911 0)
(-0.0512213 0.00450691 0)
(-0.0521757 0.00385935 0)
(-0.0529799 0.00318993 0)
(-0.0536294 0.00250223 0)
(-0.0541205 0.00179987 0)
(-0.0544505 0.00108651 0)
(-0.0546174 0.000365895 0)
(-0.0546199 -0.000358195 0)
(-0.0544579 -0.00108193 0)
(-0.0541319 -0.00180143 0)
(-0.0536433 -0.00251276 0)
(-0.0529944 -0.00321197 0)
(-0.0521885 -0.00389507 0)
(-0.0512296 -0.00455804 0)
(-0.0501227 -0.00519685 0)
(-0.0488737 -0.0058075 0)
(-0.0474893 -0.00638597 0)
(-0.045977 -0.0069283 0)
(-0.0443454 -0.00743059 0)
(-0.0426038 -0.00788901 0)
(-0.0407621 -0.00829982 0)
(-0.0388314 -0.00865944 0)
(-0.0368232 -0.00896444 0)
(-0.0347499 -0.00921158 0)
(-0.0326244 -0.00939786 0)
(-0.0304602 -0.00952057 0)
(-0.0282714 -0.00957729 0)
(-0.0260726 -0.009566 0)
(-0.0238784 -0.0094851 0)
(-0.0217041 -0.0093335 0)
(-0.0195647 -0.00911066 0)
(-0.0174753 -0.00881671 0)
(-0.0154511 -0.00845255 0)
(-0.0135065 -0.00801996 0)
(-0.0116558 -0.00752174 0)
(-0.00991221 -0.00696193 0)
(-0.00828821 -0.00634598 0)
(-0.00679498 -0.00568104 0)
(-0.00544222 -0.00497626 0)
(-0.00423782 -0.00424321 0)
(-0.00318752 -0.00349631 0)
(-0.00229455 -0.00275339 0)
(-0.00155914 -0.00203633 0)
(-0.000977952 -0.00137173 0)
(-0.000543411 -0.000791655 0)
(-0.00024218 -0.000334246 0)
(-5.54818e-05 -4.40383e-05 0)
(-7.83603e-05 0.00014592 0)
(-0.000337051 0.000639929 0)
(-0.000738227 0.00129956 0)
(-0.00129842 0.00207764 0)
(-0.0020279 0.00293338 0)
(-0.00293081 0.0038323 0)
(-0.00400711 0.00474574 0)
(-0.00525343 0.00565018 0)
(-0.00666371 0.00652655 0)
(-0.00822966 0.00735962 0)
(-0.00994117 0.00813736 0)
(-0.0117866 0.00885049 0)
(-0.0137531 0.00949197 0)
(-0.0158267 0.0100567 0)
(-0.0179929 0.0105411 0)
(-0.0202366 0.010943 0)
(-0.0225422 0.0112613 0)
(-0.0248941 0.0114957 0)
(-0.0272765 0.0116468 0)
(-0.0296737 0.0117159 0)
(-0.0320703 0.0117045 0)
(-0.0344512 0.011615 0)
(-0.0368016 0.0114498 0)
(-0.0391072 0.0112117 0)
(-0.0413541 0.0109038 0)
(-0.0435291 0.0105294 0)
(-0.0456196 0.0100919 0)
(-0.0476137 0.00959504 0)
(-0.0495001 0.00904246 0)
(-0.0512683 0.00843804 0)
(-0.0529086 0.00778572 0)
(-0.0544118 0.00708955 0)
(-0.0557699 0.00635365 0)
(-0.0569755 0.0055822 0)
(-0.0580219 0.00477948 0)
(-0.0589036 0.00394982 0)
(-0.0596157 0.00309762 0)
(-0.0601542 0.00222737 0)
(-0.0605161 0.00134359 0)
(-0.0606992 0.000450903 0)
(-0.0607023 -0.000446028 0)
(-0.060525 -0.00134247 0)
(-0.0601681 -0.00223363 0)
(-0.059633 -0.00311468 0)
(-0.0589223 -0.00398073 0)
(-0.0580395 -0.00482686 0)
(-0.0569889 -0.00564812 0)
(-0.055776 -0.00643958 0)
(-0.0544071 -0.00719628 0)
(-0.0528895 -0.00791331 0)
(-0.0512315 -0.0085858 0)
(-0.0494421 -0.00920897 0)
(-0.0475314 -0.00977811 0)
(-0.0455105 -0.0102887 0)
(-0.0433909 -0.0107363 0)
(-0.0411853 -0.0111167 0)
(-0.038907 -0.0114261 0)
(-0.0365701 -0.0116607 0)
(-0.034189 -0.0118173 0)
(-0.031779 -0.011893 0)
(-0.0293558 -0.0118854 0)
(-0.0269353 -0.0117925 0)
(-0.0245338 -0.0116132 0)
(-0.0221676 -0.0113467 0)
(-0.0198531 -0.0109935 0)
(-0.0176064 -0.0105545 0)
(-0.0154434 -0.0100321 0)
(-0.0133793 -0.0094297 0)
(-0.0114287 -0.00875218 0)
(-0.00960515 -0.00800607 0)
(-0.007921 -0.00719982 0)
(-0.00638714 -0.00634418 0)
(-0.00501272 -0.0054525 0)
(-0.00380478 -0.00454126 0)
(-0.00276798 -0.00363057 0)
(-0.00190408 -0.0027447 0)
(-0.00121141 -0.00191275 0)
(-0.000684049 -0.00116921 0)
(-0.000310117 -0.00055443 0)
(-7.17661e-05 -0.000114595 0)
(-9.5127e-05 0.000241692 0)
(-0.000406917 0.000927906 0)
(-0.000882937 0.00178022 0)
(-0.00153871 0.00275068 0)
(-0.00238285 0.00379713 0)
(-0.00341751 0.0048834 0)
(-0.00464071 0.005979 0)
(-0.00604723 0.00705856 0)
(-0.00762932 0.00810125 0)
(-0.00937717 0.00909023 0)
(-0.0112793 0.0100121 0)
(-0.0133227 0.0108562 0)
(-0.0154933 0.0116147 0)
(-0.0177761 0.0122815 0)
(-0.0201554 0.0128526 0)
(-0.0226149 0.0133252 0)
(-0.025138 0.0136981 0)
(-0.027708 0.0139708 0)
(-0.030308 0.0141441 0)
(-0.0329214 0.0142192 0)
(-0.0355317 0.0141981 0)
(-0.0381227 0.0140833 0)
(-0.0406787 0.0138778 0)
(-0.0431843 0.0135849 0)
(-0.0456249 0.0132082 0)
(-0.0479862 0.0127516 0)
(-0.0502549 0.0122193 0)
(-0.0524181 0.0116155 0)
(-0.0544639 0.0109448 0)
(-0.0563809 0.0102117 0)
(-0.0581588 0.00942102 0)
(-0.059788 0.00857756 0)
(-0.0612595 0.00768629 0)
(-0.0625657 0.00675225 0)
(-0.0636994 0.00578057 0)
(-0.0646546 0.00477649 0)
(-0.065426 0.00374531 0)
(-0.0660096 0.00269241 0)
(-0.066402 0.00162327 0)
(-0.0666008 0.000543439 0)
(-0.0666049 -0.00054146 0)
(-0.0664138 -0.00162573 0)
(-0.0660282 -0.0027036 0)
(-0.0654497 -0.00376926 0)
(-0.0646811 -0.00481682 0)
(-0.0637261 -0.00584038 0)
(-0.0625894 -0.00683399 0)
(-0.0612767 -0.00779171 0)
(-0.0597949 -0.0087076 0)
(-0.0581517 -0.00957578 0)
(-0.0563559 -0.0103904 0)
(-0.0544172 -0.0111457 0)
(-0.0523464 -0.0118361 0)
(-0.0501552 -0.0124562 0)
(-0.0478561 -0.0130006 0)
(-0.0454625 -0.0134645 0)
(-0.0429886 -0.0138431 0)
(-0.0404494 -0.0141321 0)
(-0.0378604 -0.0143276 0)
(-0.0352379 -0.0144262 0)
(-0.0325985 -0.014425 0)
(-0.0299594 -0.0143219 0)
(-0.0273378 -0.0141153 0)
(-0.0247512 -0.0138047 0)
(-0.0222172 -0.0133903 0)
(-0.0197529 -0.0128737 0)
(-0.0173754 -0.0122575 0)
(-0.0151012 -0.0115457 0)
(-0.0129459 -0.010744 0)
(-0.0109242 -0.00986017 0)
(-0.00904993 -0.0089038 0)
(-0.00733511 -0.00788715 0)
(-0.00579031 -0.00682527 0)
(-0.00442405 -0.00573653 0)
(-0.00324257 -0.00464303 0)
(-0.00224939 -0.00357116 0)
(-0.00144462 -0.00255209 0)
(-0.000824175 -0.00162223 0)
(-0.000377618 -0.000823487 0)
(-8.79351e-05 -0.000203054 0)
(-0.000111569 0.00035561 0)
(-0.000475499 0.00126562 0)
(-0.00102539 0.00233783 0)
(-0.00177593 0.00352403 0)
(-0.00273409 0.0047812 0)
(-0.00390006 0.00607198 0)
(-0.00526976 0.00736443 0)
(-0.00683602 0.00863169 0)
(-0.00858928 0.00985146 0)
(-0.0105181 0.0110055 0)
(-0.0126094 0.0120791 0)
(-0.0148489 0.0130607 0)
(-0.0172212 0.0139413 0)
(-0.01971 0.0147142 0)
(-0.0222986 0.0153748 0)
(-0.0249695 0.01592 0)
(-0.0277051 0.0163482 0)
(-0.0304876 0.016659 0)
(-0.0332991 0.0168531 0)
(-0.0361221 0.0169319 0)
(-0.0389391 0.0168978 0)
(-0.0417329 0.0167536 0)
(-0.0444869 0.0165027 0)
(-0.0471849 0.016149 0)
(-0.0498114 0.0156966 0)
(-0.0523514 0.0151502 0)
(-0.0547906 0.0145145 0)
(-0.0571156 0.0137947 0)
(-0.0593137 0.0129959 0)
(-0.0613728 0.0121236 0)
(-0.0632821 0.0111833 0)
(-0.0650312 0.0101808 0)
(-0.066611 0.00912194 0)
(-0.0680131 0.00801259 0)
(-0.06923 0.00685886 0)
(-0.0702554 0.0056669 0)
(-0.0710837 0.00444297 0)
(-0.0717105 0.00319345 0)
(-0.0721323 0.00192479 0)
(-0.0723467 0.000643537 0)
(-0.0723522 -0.000643665 0)
(-0.0721485 -0.00193009 0)
(-0.0717363 -0.00320895 0)
(-0.0711173 -0.00447336 0)
(-0.0702944 -0.0057164 0)
(-0.0692715 -0.00693111 0)
(-0.0680535 -0.00811048 0)
(-0.0666466 -0.00924751 0)
(-0.0650579 -0.0103352 0)
(-0.0632955 -0.0113667 0)
(-0.0613689 -0.012335 0)
(-0.0592882 -0.0132335 0)
(-0.0570649 -0.0140554 0)
(-0.0547111 -0.0147946 0)
(-0.0522403 -0.0154447 0)
(-0.0496666 -0.016 0)
(-0.0470048 -0.0164549 0)
(-0.044271 -0.0168045 0)
(-0.0414815 -0.0170442 0)
(-0.0386535 -0.0171699 0)
(-0.0358047 -0.0171785 0)
(-0.032953 -0.0170673 0)
(-0.030117 -0.0168346 0)
(-0.0273151 -0.0164799 0)
(-0.0245659 -0.0160034 0)
(-0.0218877 -0.0154069 0)
(-0.0192989 -0.0146935 0)
(-0.0168168 -0.0138678 0)
(-0.0144585 -0.0129363 0)
(-0.01224 -0.0119077 0)
(-0.0101762 -0.0107929 0)
(-0.00828073 -0.00960547 0)
(-0.00656555 -0.00836206 0)
(-0.00504084 -0.0070827 0)
(-0.00371457 -0.00579129 0)
(-0.00259211 -0.00451601 0)
(-0.0016755 -0.00328974 0)
(-0.000962477 -0.00215038 0)
(-0.000444035 -0.00114093 0)
(-0.000103826 -0.000309094 0)
(-0.000127605 0.000487204 0)
(-0.000542461 0.00165213 0)
(-0.00116488 0.00297135 0)
(-0.00200886 0.00439671 0)
(-0.00307988 0.00588477 0)
(-0.0043761 0.00739733 0)
(-0.00589137 0.00890139 0)
(-0.00761647 0.0103689 0)
(-0.00953993 0.0117764 0)
(-0.0116485 0.0131043 0)
(-0.0139277 0.0143371 0)
(-0.0163615 0.015462 0)
(-0.0189333 0.0164694 0)
(-0.0216256 0.0173519 0)
(-0.0244203 0.0181043 0)
(-0.027299 0.0187233 0)
(-0.030243 0.0192071 0)
(-0.0332334 0.0195552 0)
(-0.0362515 0.0197684 0)
(-0.0392787 0.0198483 0)
(-0.0422966 0.0197976 0)
(-0.0452872 0.0196195 0)
(-0.048233 0.0193179 0)
(-0.0511171 0.0188973 0)
(-0.0539231 0.0183624 0)
(-0.0566353 0.0177185 0)
(-0.0592387 0.0169712 0)
(-0.0617193 0.0161262 0)
(-0.0640637 0.0151897 0)
(-0.0662593 0.0141679 0)
(-0.0682946 0.0130673 0)
(-0.070159 0.0118945 0)
(-0.0718426 0.0106562 0)
(-0.0733367 0.00935945 0)
(-0.0746336 0.00801114 0)
(-0.0757264 0.00661847 0)
(-0.0766095 0.00518872 0)
(-0.0772781 0.00372928 0)
(-0.0777286 0.00224763 0)
(-0.0779585 0.000751381 0)
(-0.0779661 -0.000751759 0)
(-0.0777511 -0.00225399 0)
(-0.0773143 -0.00374742 0)
(-0.0766574 -0.00522409 0)
(-0.0757834 -0.00667595 0)
(-0.0746964 -0.00809494 0)
(-0.0734015 -0.00947294 0)
(-0.0719052 -0.0108018 0)
(-0.0702148 -0.0120735 0)
(-0.0683391 -0.01328 0)
(-0.0662876 -0.0144133 0)
(-0.0640712 -0.0154656 0)
(-0.0617017 -0.0164294 0)
(-0.059192 -0.0172971 0)
(-0.0565561 -0.0180617 0)
(-0.0538087 -0.0187165 0)
(-0.0509657 -0.0192551 0)
(-0.0480435 -0.0196717 0)
(-0.0450595 -0.019961 0)
(-0.0420317 -0.0201186 0)
(-0.0389787 -0.0201405 0)
(-0.0359194 -0.020024 0)
(-0.0328733 -0.0197669 0)
(-0.02986 -0.0193687 0)
(-0.026899 -0.0188296 0)
(-0.0240098 -0.0181516 0)
(-0.0212118 -0.0173382 0)
(-0.0185237 -0.0163946 0)
(-0.0159637 -0.0153281 0)
(-0.0135492 -0.0141481 0)
(-0.0112965 -0.0128669 0)
(-0.00922074 -0.0114991 0)
(-0.00733544 -0.0100629 0)
(-0.00565252 -0.00857977 0)
(-0.0041818 -0.0070752 0)
(-0.00293059 -0.00557888 0)
(-0.00190289 -0.00412509 0)
(-0.00109827 -0.00275287 0)
(-0.00050904 -0.00150598 0)
(-0.000119359 -0.0004323 0)
(-0.000143204 0.000635969 0)
(-0.000607677 0.00208635 0)
(-0.0013011 0.00367942 0)
(-0.00223696 0.00536736 0)
(-0.00341932 0.00710656 0)
(-0.00484441 0.0088583 0)
(-0.00650398 0.0105888 0)
(-0.00838672 0.0122692 0)
(-0.0104792 0.0138749 0)
(-0.0127664 0.0153855 0)
(-0.0152319 0.0167845 0)
(-0.0178585 0.0180585 0)
(-0.0206279 0.0191969 0)
(-0.0235215 0.0201921 0)
(-0.0265198 0.0210382 0)
(-0.0296034 0.0217319 0)
(-0.0327524 0.022271 0)
(-0.035947 0.0226553 0)
(-0.0391675 0.0228854 0)
(-0.0423944 0.0229635 0)
(-0.0456085 0.0228923 0)
(-0.048791 0.0226757 0)
(-0.0519235 0.022318 0)
(-0.0549883 0.0218242 0)
(-0.0579685 0.0211998 0)
(-0.0608476 0.0204508 0)
(-0.06361 0.0195836 0)
(-0.0662411 0.0186047 0)
(-0.0687268 0.0175211 0)
(-0.0710542 0.0163399 0)
(-0.0732112 0.0150685 0)
(-0.0751866 0.0137145 0)
(-0.0769704 0.0122855 0)
(-0.0785534 0.0107896 0)
(-0.0799276 0.00923477 0)
(-0.0810857 0.00762914 0)
(-0.082022 0.00598106 0)
(-0.0827314 0.00429899 0)
(-0.0832101 0.0025915 0)
(-0.0834555 0.000867299 0)
(-0.083466 -0.0008648 0)
(-0.083241 -0.00259587 0)
(-0.0827815 -0.00431689 0)
(-0.0820891 -0.00601874 0)
(-0.081167 -0.00769224 0)
(-0.0800193 -0.00932814 0)
(-0.0786514 -0.0109172 0)
(-0.07707 -0.0124501 0)
(-0.0752827 -0.0139176 0)
(-0.0732985 -0.0153106 0)
(-0.0711274 -0.0166199 0)
(-0.0687807 -0.0178367 0)
(-0.0662706 -0.0189521 0)
(-0.0636106 -0.0199579 0)
(-0.0608151 -0.0208458 0)
(-0.0578996 -0.0216083 0)
(-0.0548806 -0.0222379 0)
(-0.0517752 -0.0227282 0)
(-0.0486016 -0.0230732 0)
(-0.0453786 -0.0232675 0)
(-0.0421256 -0.023307 0)
(-0.0388626 -0.0231881 0)
(-0.0356098 -0.0229089 0)
(-0.032388 -0.0224682 0)
(-0.0292176 -0.0218665 0)
(-0.0261194 -0.0211059 0)
(-0.0231139 -0.0201902 0)
(-0.020221 -0.0191251 0)
(-0.0174603 -0.0179186 0)
(-0.0148505 -0.016581 0)
(-0.0124093 -0.0151254 0)
(-0.0101536 -0.0135678 0)
(-0.00809852 -0.0119275 0)
(-0.00625782 -0.0102274 0)
(-0.00464325 -0.00849423 0)
(-0.00326409 -0.00675902 0)
(-0.00212632 -0.00505719 0)
(-0.00123129 -0.00342867 0)
(-0.00057253 -0.00191772 0)
(-0.000134507 -0.000572224 0)
(-0.000158372 0.000801405 0)
(-0.000671162 0.00256716 0)
(-0.00143403 0.00446061 0)
(-0.0024601 0.00643443 0)
(-0.00375216 0.00844505 0)
(-0.00530456 0.0104535 0)
(-0.00710697 0.0124254 0)
(-0.00914601 0.0143312 0)
(-0.0114062 0.0161457 0)
(-0.0138707 0.0178478 0)
(-0.0165213 0.01942 0)
(-0.0193391 0.0208485 0)
(-0.0223045 0.0221221 0)
(-0.0253974 0.0232326 0)
(-0.0285972 0.0241742 0)
(-0.0318832 0.0249429 0)
(-0.0352345 0.0255369 0)
(-0.0386303 0.0259558 0)
(-0.0420499 0.0262005 0)
(-0.045473 0.0262734 0)
(-0.0488794 0.0261777 0)
(-0.0522496 0.0259176 0)
(-0.0555646 0.0254981 0)
(-0.0588059 0.0249249 0)
(-0.0619558 0.0242041 0)
(-0.0649973 0.0233425 0)
(-0.0679143 0.0223472 0)
(-0.0706915 0.0212256 0)
(-0.0733145 0.0199856 0)
(-0.0757697 0.0186353 0)
(-0.0780447 0.017183 0)
(-0.080128 0.0156373 0)
(-0.082009 0.0140068 0)
(-0.0836783 0.0123005 0)
(-0.0851275 0.0105276 0)
(-0.0863493 0.00869723 0)
(-0.0873375 0.00681884 0)
(-0.0880869 0.00490197 0)
(-0.0885937 0.00295633 0)
(-0.088855 0.000991757 0)
(-0.0888691 -0.000981785 0)
(-0.0886355 -0.00295421 0)
(-0.088155 -0.00491531 0)
(-0.0874295 -0.00685479 0)
(-0.086462 -0.00876227 0)
(-0.0852568 -0.0106273 0)
(-0.0838195 -0.0124394 0)
(-0.0821569 -0.0141882 0)