/*--------------------------------*- C++ -*----------------------------------*\
| =========                 |                                                 |
| \\      /  F ield         | OpenFOAM: The Open Source CFD Toolbox           |
|  \\    /   O peration     | Version:  4.1                                   |
|   \\  /    A nd           | Web:      www.OpenFOAM.org                      |
|    \\/     M anipulation  |                                                 |
\*---------------------------------------------------------------------------*/
FoamFile
{
    version     2.0;
    format      ascii;
    class       volVectorField;
    location    "0.1125";
    object      U;
}
// * * * * * * * * * * * * * * * * * * * * * * * * * * * * * * * * * * * * * //

dimensions      [0 1 -1 0 0 0 0];

internalField   nonuniform List<vector> 
6400
(
(7.98457e-06 -7.94936e-06 0)
(3.01334e-05 -1.15737e-05 0)
(4.82736e-05 -8.03097e-06 0)
(5.6262e-05 1.22311e-06 0)
(4.98895e-05 1.41852e-05 0)
(2.668e-05 2.92887e-05 0)
(-1.45867e-05 4.53927e-05 0)
(-7.42172e-05 6.1688e-05 0)
(-0.000151872 7.76065e-05 0)
(-0.000246758 9.27536e-05 0)
(-0.000357772 0.000106859 0)
(-0.0004836 0.000119742 0)
(-0.000622791 0.000131285 0)
(-0.000773809 0.000141421 0)
(-0.000935074 0.000150113 0)
(-0.00110499 0.000157351 0)
(-0.00128196 0.000163145 0)
(-0.00146442 0.000167517 0)
(-0.00165083 0.000170498 0)
(-0.00183969 0.00017213 0)
(-0.00202955 0.000172458 0)
(-0.00221901 0.000171533 0)
(-0.00240674 0.000169407 0)
(-0.00259145 0.000166136 0)
(-0.00277192 0.000161778 0)
(-0.002947 0.00015639 0)
(-0.0031156 0.000150032 0)
(-0.00327668 0.000142764 0)
(-0.0034293 0.000134647 0)
(-0.00357255 0.000125741 0)
(-0.00370561 0.000116108 0)
(-0.00382772 0.00010581 0)
(-0.00393818 9.49094e-05 0)
(-0.00403638 8.34693e-05 0)
(-0.00412176 7.15535e-05 0)
(-0.00419383 5.92264e-05 0)
(-0.00425219 4.65533e-05 0)
(-0.00429648 3.36004e-05 0)
(-0.00432645 2.04351e-05 0)
(-0.0043419 7.1258e-06 0)
(-0.0043427 -6.25803e-06 0)
(-0.00432882 -1.96456e-05 0)
(-0.0043003 -3.29651e-05 0)
(-0.00425723 -4.61435e-05 0)
(-0.00419983 -5.91064e-05 0)
(-0.00412837 -7.17788e-05 0)
(-0.00404319 -8.40846e-05 0)
(-0.00394475 -9.5947e-05 0)
(-0.00383358 -0.000107289 0)
(-0.00371027 -0.000118032 0)
(-0.00357552 -0.000128099 0)
(-0.00343012 -0.000137414 0)
(-0.00327492 -0.000145898 0)
(-0.00311087 -0.000153478 0)
(-0.002939 -0.000160078 0)
(-0.00276041 -0.000165628 0)
(-0.00257628 -0.000170058 0)
(-0.00238788 -0.000173303 0)
(-0.00219652 -0.000175301 0)
(-0.00200359 -0.000175993 0)
(-0.00181056 -0.00017533 0)
(-0.00161892 -0.000173266 0)
(-0.00143022 -0.000169763 0)
(-0.00124605 -0.000164794 0)
(-0.00106803 -0.000158343 0)
(-0.000897776 -0.000150407 0)
(-0.000736922 -0.000140999 0)
(-0.000587068 -0.000130157 0)
(-0.000449776 -0.000117943 0)
(-0.000326527 -0.000104457 0)
(-0.000218689 -8.98461e-05 0)
(-0.000127457 -7.43231e-05 0)
(-5.37836e-05 -5.81878e-05 0)
(1.71997e-06 -4.18614e-05 0)
(3.89219e-05 -2.59323e-05 0)
(5.83535e-05 -1.12197e-05 0)
(6.14624e-05 1.14339e-06 0)
(5.09293e-05 9.62948e-06 0)
(3.11003e-05 1.2337e-05 0)
(8.12365e-06 8.0571e-06 0)
(1.17378e-05 -3.00726e-05 0)
(4.53063e-05 -4.48231e-05 0)
(6.48921e-05 -2.67632e-05 0)
(5.62814e-05 1.38307e-05 0)
(9.48012e-06 6.87855e-05 0)
(-8.16079e-05 0.000132009 0)
(-0.000220177 0.000199063 0)
(-0.000407215 0.000266765 0)
(-0.000642072 0.000332851 0)
(-0.000922901 0.000395732 0)
(-0.00124699 0.000454308 0)
(-0.00161101 0.000507831 0)
(-0.00201121 0.000555816 0)
(-0.00244355 0.000597966 0)
(-0.00290385 0.000634124 0)
(-0.00338779 0.00066424 0)
(-0.00389106 0.00068834 0)
(-0.00440937 0.000706507 0)
(-0.00493849 0.000718869 0)
(-0.00547426 0.000725588 0)
(-0.00601268 0.00072685 0)
(-0.00654982 0.000722859 0)
(-0.00708196 0.000713832 0)
(-0.00760548 0.000700001 0)
(-0.00811695 0.0006816 0)
(-0.00861312 0.000658874 0)
(-0.00909089 0.00063207 0)
(-0.00954736 0.000601437 0)
(-0.00997981 0.000567231 0)
(-0.0103857 0.000529707 0)
(-0.0107627 0.000489124 0)
(-0.0111086 0.000445742 0)
(-0.0114215 0.000399824 0)
(-0.0116995 0.000351637 0)
(-0.0119412 0.000301448 0)
(-0.0121452 0.00024953 0)
(-0.0123103 0.000196158 0)
(-0.0124354 0.000141611 0)
(-0.01252 8.61742e-05 0)
(-0.0125633 3.01349e-05 0)
(-0.0125652 -2.62135e-05 0)
(-0.0125254 -8.25731e-05 0)
(-0.0124442 -0.000138641 0)
(-0.0123218 -0.000194111 0)
(-0.0121587 -0.000248669 0)
(-0.0119559 -0.000302 0)
(-0.0117143 -0.000353785 0)
(-0.0114352 -0.000403701 0)
(-0.0111201 -0.000451424 0)
(-0.0107707 -0.000496628 0)
(-0.010389 -0.000538989 0)
(-0.00997722 -0.000578183 0)
(-0.00953778 -0.000613891 0)
(-0.00907337 -0.000645797 0)
(-0.00858687 -0.000673594 0)
(-0.0080814 -0.000696984 0)
(-0.0075603 -0.000715678 0)
(-0.00702707 -0.000729404 0)
(-0.00648543 -0.000737905 0)
(-0.00593926 -0.000740947 0)
(-0.00539261 -0.000738317 0)
(-0.00484965 -0.000729831 0)
(-0.00431465 -0.000715341 0)
(-0.00379201 -0.000694735 0)
(-0.00328613 -0.000667951 0)
(-0.00280145 -0.000634986 0)
(-0.00234238 -0.000595907 0)
(-0.00191321 -0.000550871 0)
(-0.00151809 -0.000500149 0)
(-0.00116093 -0.00044416 0)
(-0.000845245 -0.000383516 0)
(-0.000574064 -0.000319091 0)
(-0.000349718 -0.000252104 0)
(-0.000173597 -0.000184251 0)
(-4.58392e-05 -0.000117873 0)
(3.50913e-05 -5.61902e-05 0)
(7.29316e-05 -3.60691e-06 0)
(7.42591e-05 3.39392e-05 0)
(4.93914e-05 4.86392e-05 0)
(1.25978e-05 3.09636e-05 0)
(8.39608e-06 -4.83891e-05 0)
(2.80348e-05 -6.44723e-05 0)
(2.08303e-05 -1.90694e-05 0)
(-3.15554e-05 6.83158e-05 0)
(-0.000142482 0.00018267 0)
(-0.000320352 0.000312721 0)
(-0.000569735 0.000450122 0)
(-0.000892168 0.00058876 0)
(-0.00128686 0.000724197 0)
(-0.00175125 0.00085325 0)
(-0.00228144 0.000973663 0)
(-0.00287258 0.00108387 0)
(-0.0035191 0.00118283 0)
(-0.00421497 0.00126986 0)
(-0.00495381 0.0013446 0)
(-0.00572909 0.00140689 0)
(-0.00653416 0.00145673 0)
(-0.00736239 0.00149427 0)
(-0.00820721 0.00151973 0)
(-0.00906216 0.00153343 0)
(-0.00992094 0.00153571 0)
(-0.0107774 0.001527 0)
(-0.0116257 0.00150773 0)
(-0.0124601 0.00147836 0)
(-0.0132752 0.00143939 0)
(-0.0140658 0.00139131 0)
(-0.014827 0.00133464 0)
(-0.0155542 0.0012699 0)
(-0.0162431 0.00119762 0)
(-0.0168897 0.00111834 0)
(-0.0174901 0.0010326 0)
(-0.018041 0.000940948 0)
(-0.0185392 0.000843948 0)
(-0.0189819 0.000742157 0)
(-0.0193666 0.000636144 0)
(-0.0196911 0.000526484 0)
(-0.0199536 0.000413763 0)
(-0.0201526 0.000298571 0)
(-0.0202868 0.00018151 0)
(-0.0203554 6.31914e-05 0)
(-0.0203578 -5.57653e-05 0)
(-0.020294 -0.000174729 0)
(-0.0201641 -0.000293061 0)
(-0.0199686 -0.000410111 0)
(-0.0197086 -0.00052522 0)
(-0.0193852 -0.000637723 0)
(-0.0190001 -0.000746946 0)
(-0.0185553 -0.000852212 0)
(-0.0180533 -0.000952838 0)
(-0.0174968 -0.00104814 0)
(-0.0168889 -0.00113745 0)
(-0.0162333 -0.00122007 0)
(-0.0155336 -0.00129535 0)
(-0.0147943 -0.00136263 0)
(-0.0140199 -0.00142127 0)
(-0.0132152 -0.00147064 0)
(-0.0123857 -0.00151016 0)
(-0.0115367 -0.00153927 0)
(-0.0106742 -0.00155743 0)
(-0.00980432 -0.00156418 0)
(-0.00893331 -0.00155908 0)
(-0.00806772 -0.00154178 0)
(-0.00721425 -0.00151198 0)
(-0.00637969 -0.00146947 0)
(-0.00557088 -0.00141417 0)
(-0.00479466 -0.0013461 0)
(-0.00405779 -0.00126543 0)
(-0.00336682 -0.00117254 0)
(-0.00272804 -0.00106803 0)
(-0.00214727 -0.00095282 0)
(-0.00162977 -0.000828198 0)
(-0.00117994 -0.000695982 0)
(-0.000801119 -0.000558663 0)
(-0.000495218 -0.000419628 0)
(-0.000262295 -0.000283465 0)
(-0.000100037 -0.000156357 0)
(-3.11228e-06 -4.6589e-05 0)
(3.75616e-05 3.48334e-05 0)
(3.58227e-05 7.34856e-05 0)
(1.01833e-05 5.09619e-05 0)
(-5.89157e-07 -5.68884e-05 0)
(-1.1491e-05 -5.65769e-05 0)
(-6.47038e-05 3.3043e-05 0)
(-0.00018024 0.00018427 0)
(-0.000372991 0.000375547 0)
(-0.000652435 0.000590389 0)
(-0.00102378 0.000816325 0)
(-0.00148874 0.00104402 0)
(-0.0020463 0.00126655 0)
(-0.00269327 0.00147883 0)
(-0.0034248 0.00167718 0)
(-0.00423481 0.001859 0)
(-0.00511626 0.00202247 0)
(-0.00606145 0.00216642 0)
(-0.00706222 0.00229013 0)
(-0.00811013 0.00239328 0)
(-0.00919657 0.00247579 0)
(-0.0103129 0.00253784 0)
(-0.0114505 0.00257973 0)
(-0.0126009 0.00260195 0)
(-0.0137558 0.00260505 0)
(-0.0149072 0.00258967 0)
(-0.016047 0.00255654 0)
(-0.017168 0.0025064 0)
(-0.0182627 0.00244006 0)
(-0.0193244 0.00235835 0)
(-0.0203464 0.00226211 0)
(-0.0213227 0.00215223 0)
(-0.0222474 0.00202959 0)
(-0.0231151 0.0018951 0)
(-0.0239208 0.00174967 0)
(-0.02466 0.00159424 0)
(-0.0253283 0.00142974 0)
(-0.0259222 0.00125713 0)
(-0.0264381 0.00107738 0)
(-0.0268732 0.000891452 0)
(-0.027225 0.000700352 0)
(-0.0274915 0.000505083 0)
(-0.027671 0.000306668 0)
(-0.0277625 0.000106142 0)
(-0.0277652 -9.54388e-05 0)
(-0.0276791 -0.000297006 0)
(-0.0275042 -0.000497474 0)
(-0.0272415 -0.000695741 0)
(-0.0268921 -0.000890694 0)
(-0.0264577 -0.0010812 0)
(-0.0259407 -0.00126614 0)
(-0.0253437 -0.00144435 0)
(-0.02467 -0.00161468 0)
(-0.0239232 -0.001776 0)
(-0.0231076 -0.00192715 0)
(-0.022228 -0.00206701 0)
(-0.0212894 -0.00219445 0)
(-0.0202975 -0.00230837 0)
(-0.0192585 -0.00240772 0)
(-0.0181789 -0.00249145 0)
(-0.0170657 -0.0025586 0)
(-0.0159263 -0.00260823 0)
(-0.0147684 -0.00263948 0)
(-0.0136001 -0.00265157 0)
(-0.0124298 -0.00264383 0)
(-0.011266 -0.00261567 0)
(-0.0101175 -0.00256666 0)
(-0.00899331 -0.00249649 0)
(-0.00790226 -0.00240505 0)
(-0.00685329 -0.00229246 0)
(-0.00585515 -0.00215906 0)
(-0.0049163 -0.00200556 0)
(-0.0040448 -0.00183302 0)
(-0.00324808 -0.00164302 0)
(-0.00253279 -0.00143775 0)
(-0.00190447 -0.00122024 0)
(-0.00136729 -0.000994526 0)
(-0.000923628 -0.000766008 0)
(-0.000573617 -0.000541853 0)
(-0.000314588 -0.000331507 0)
(-0.000140395 -0.000147367 0)
(-4.07074e-05 -5.57482e-06 0)
(1.63123e-08 7.30523e-05 0)
(2.13646e-06 6.20989e-05 0)
(-1.32848e-05 -5.14347e-05 0)
(-6.54098e-05 -1.12261e-05 0)
(-0.000177396 0.000142923 0)
(-0.000369486 0.000376671 0)
(-0.00065681 0.000662723 0)
(-0.00104891 0.000979744 0)
(-0.00155093 0.00131125 0)
(-0.00216432 0.00164463 0)
(-0.0028876 0.00197033 0)
(-0.0037169 0.0022812 0)
(-0.0046465 0.00257195 0)
(-0.00566922 0.00283873 0)
(-0.00677676 0.00307884 0)
(-0.00796002 0.00329045 0)
(-0.00920932 0.0034724 0)
(-0.0105146 0.0036241 0)
(-0.0118655 0.00374535 0)
(-0.0132518 0.0038363 0)
(-0.0146629 0.00389736 0)
(-0.0160887 0.00392915 0)
(-0.0175191 0.00393244 0)
(-0.0189443 0.00390816 0)
(-0.0203547 0.00385731 0)
(-0.0217411 0.00378101 0)
(-0.0230948 0.00368041 0)
(-0.0244072 0.00355673 0)
(-0.0256703 0.00341124 0)
(-0.0268766 0.00324524 0)
(-0.0280191 0.00306004 0)
(-0.0290909 0.00285701 0)
(-0.030086 0.00263753 0)
(-0.0309988 0.00240298 0)
(-0.031824 0.00215478 0)
(-0.0325571 0.00189437 0)
(-0.0331938 0.00162321 0)
(-0.0337307 0.00134277 0)
(-0.0341647 0.00105456 0)
(-0.0344932 0.000760084 0)
(-0.0347144 0.000460897 0)
(-0.0348268 0.000158562 0)
(-0.0348297 -0.000145329 0)
(-0.0347227 -0.000449164 0)
(-0.0345063 -0.000751304 0)
(-0.0341815 -0.00105009 0)
(-0.0337497 -0.00134385 0)
(-0.033213 -0.00163089 0)
(-0.0325744 -0.00190949 0)
(-0.0318371 -0.00217794 0)
(-0.031005 -0.00243452 0)
(-0.0300829 -0.00267751 0)
(-0.0290758 -0.0029052 0)
(-0.0279896 -0.0031159 0)
(-0.0268305 -0.00330794 0)
(-0.0256057 -0.0034797 0)
(-0.0243224 -0.00362958 0)
(-0.0229889 -0.00375607 0)
(-0.0216135 -0.00385772 0)
(-0.0202053 -0.00393317 0)
(-0.0187738 -0.00398117 0)
(-0.0173287 -0.00400059 0)
(-0.0158802 -0.00399046 0)
(-0.0144387 -0.00394996 0)
(-0.0130149 -0.00387848 0)
(-0.0116194 -0.00377566 0)
(-0.0102631 -0.0036414 0)
(-0.00895667 -0.00347593 0)
(-0.00771051 -0.00327987 0)
(-0.00653475 -0.00305433 0)
(-0.00543895 -0.00280098 0)
(-0.00443194 -0.00252222 0)
(-0.00352155 -0.00222132 0)
(-0.00271435 -0.00190269 0)
(-0.0020153 -0.00157214 0)
(-0.00142735 -0.00123729 0)
(-0.000950953 -0.000908012 0)
(-0.000583567 -0.000597113 0)
(-0.000318959 -0.00032102 0)
(-0.000146557 -0.00010069 0)
(-5.03912e-05 3.73847e-05 0)
(-9.67537e-06 6.02088e-05 0)
(-2.82293e-05 -2.95151e-05 0)
(-0.000128076 7.78979e-05 0)
(-0.000306922 0.000319454 0)
(-0.000584431 0.000655768 0)
(-0.0009751 0.00105481 0)
(-0.00148778 0.00149098 0)
(-0.0021269 0.00194411 0)
(-0.00289326 0.00239844 0)
(-0.0037846 0.0028418 0)
(-0.00479626 0.00326492 0)
(-0.00592158 0.00366078 0)
(-0.00715235 0.00402422 0)
(-0.00847912 0.0043515 0)
(-0.00989156 0.00464003 0)
(-0.0113786 0.00488815 0)
(-0.0129288 0.0050949 0)
(-0.0145304 0.00525993 0)
(-0.0161715 0.00538331 0)
(-0.0178401 0.00546554 0)
(-0.0195244 0.00550736 0)
(-0.0212129 0.00550978 0)
(-0.0228941 0.00547402 0)
(-0.024557 0.00540141 0)
(-0.026191 0.00529344 0)
(-0.0277856 0.0051517 0)
(-0.0293312 0.00497784 0)
(-0.0308184 0.00477361 0)
(-0.0322384 0.00454078 0)
(-0.0335828 0.00428119 0)
(-0.034844 0.00399673 0)
(-0.0360147 0.0036893 0)
(-0.0370882 0.00336084 0)
(-0.0380587 0.00301334 0)
(-0.0389206 0.0026488 0)
(-0.0396692 0.00226926 0)
(-0.0403002 0.00187677 0)
(-0.0408102 0.00147345 0)
(-0.0411961 0.00106142 0)
(-0.0414557 0.000642837 0)
(-0.0415874 0.000219895 0)
(-0.0415903 -0.00020518 0)
(-0.0414641 -0.000630131 0)
(-0.0412093 -0.00105267 0)
(-0.040827 -0.00147049 0)
(-0.0403189 -0.00188123 0)
(-0.0396877 -0.00228255 0)
(-0.0389365 -0.00267205 0)
(-0.0380694 -0.00304736 0)
(-0.0370908 -0.00340607 0)
(-0.0360063 -0.00374581 0)
(-0.0348219 -0.00406419 0)
(-0.0335444 -0.00435889 0)
(-0.032181 -0.00462758 0)
(-0.03074 -0.00486803 0)
(-0.0292301 -0.00507807 0)
(-0.0276606 -0.00525558 0)
(-0.0260414 -0.00539861 0)
(-0.024383 -0.0055053 0)
(-0.0226963 -0.00557394 0)
(-0.0209926 -0.00560303 0)
(-0.0192837 -0.00559125 0)
(-0.0175817 -0.00553756 0)
(-0.0158987 -0.00544118 0)
(-0.0142472 -0.00530167 0)
(-0.0126395 -0.00511898 0)
(-0.0110878 -0.00489352 0)
(-0.00960417 -0.00462626 0)
(-0.00820008 -0.00431878 0)
(-0.00688645 -0.00397348 0)
(-0.00567333 -0.00359369 0)
(-0.00456968 -0.00318389 0)
(-0.00358305 -0.00275002 0)
(-0.00271925 -0.00229977 0)
(-0.00198195 -0.00184303 0)
(-0.00137226 -0.00139244 0)
(-0.000888192 -0.000964035 0)
(-0.000524042 -0.000577994 0)
(-0.000269761 -0.000259557 0)
(-0.000109819 -3.99669e-05 0)
(-2.38071e-05 4.27114e-05 0)
(-4.44054e-05 1.0263e-05 0)
(-0.000195568 0.000214573 0)
(-0.000446008 0.000568246 0)
(-0.000814406 0.00102829 0)
(-0.00131408 0.00155894 0)
(-0.00195262 0.00213104 0)
(-0.00273331 0.00272115 0)
(-0.00365584 0.00331062 0)
(-0.00471695 0.00388482 0)
(-0.00591096 0.00443237 0)
(-0.0072302 0.00494453 0)
(-0.0086654 0.00541476 0)
(-0.010206 0.00583824 0)
(-0.0118406 0.00621156 0)
(-0.0135568 0.00653246 0)
(-0.0153419 0.00679961 0)
(-0.0171828 0.0070124 0)
(-0.0190662 0.00717085 0)
(-0.020979 0.00727547 0)
(-0.0229078 0.00732718 0)
(-0.0248397 0.0073272 0)
(-0.0267619 0.00727704 0)
(-0.0286621 0.00717841 0)
(-0.0305282 0.00703321 0)
(-0.0323486 0.00684347 0)
(-0.0341124 0.00661137 0)
(-0.035809 0.00633914 0)
(-0.0374285 0.00602914 0)
(-0.0389614 0.00568376 0)
(-0.040399 0.00530548 0)
(-0.0417333 0.00489681 0)
(-0.0429566 0.00446033 0)
(-0.0440623 0.00399865 0)
(-0.0450441 0.00351442 0)
(-0.0458967 0.00301035 0)
(-0.0466153 0.00248917 0)
(-0.0471959 0.00195366 0)
(-0.0476352 0.00140665 0)
(-0.0479306 0.000851 0)
(-0.0480803 0.000289623 0)
(-0.0480833 -0.000274532 0)
(-0.0479394 -0.000838475 0)
(-0.0476489 -0.00139918 0)
(-0.0472133 -0.00195357 0)
(-0.0466345 -0.00249856 0)
(-0.0459154 -0.00303101 0)
(-0.0450598 -0.0035478 0)
(-0.044072 -0.00404576 0)
(-0.0429574 -0.00452175 0)
(-0.0417219 -0.00497261 0)
(-0.0403725 -0.00539523 0)
(-0.0389168 -0.00578653 0)
(-0.0373631 -0.00614349 0)
(-0.0357206 -0.00646316 0)
(-0.033999 -0.00674271 0)
(-0.0322089 -0.0069794 0)
(-0.0303615 -0.00717066 0)
(-0.0284685 -0.0073141 0)
(-0.0265421 -0.00740752 0)
(-0.0245951 -0.007449 0)
(-0.0226406 -0.00743686 0)
(-0.0206922 -0.0073698 0)
(-0.0187634 -0.00724688 0)
(-0.0168682 -0.00706759 0)
(-0.0150202 -0.00683198 0)
(-0.0132332 -0.00654067 0)
(-0.0115204 -0.006195 0)
(-0.00989468 -0.00579715 0)
(-0.00836818 -0.00535028 0)
(-0.00695211 -0.00485875 0)
(-0.00565651 -0.00432833 0)
(-0.00448996 -0.00376654 0)
(-0.00345923 -0.003183 0)
(-0.00256893 -0.00258987 0)
(-0.00182108 -0.00200242 0)
(-0.00121465 -0.0014397 0)
(-0.000744964 -0.000925264 0)
(-0.000403046 -0.000487996 0)
(-0.000174345 -0.00016294 0)
(-3.92393e-05 8.14039e-06 0)
(-6.11335e-05 6.85243e-05 0)
(-0.000265243 0.000400759 0)
(-0.000589657 0.000892477 0)
(-0.00105193 0.00149826 0)
(-0.00166389 0.00217955 0)
(-0.00243151 0.00290431 0)
(-0.00335654 0.00364632 0)
(-0.00443727 0.0043844 0)
(-0.00566915 0.0051016 0)
(-0.00704532 0.00578459 0)
(-0.00855698 0.00642297 0)
(-0.0101937 0.00700882 0)
(-0.0119439 0.00753622 0)
(-0.0137949 0.00800092 0)
(-0.0157333 0.00840004 0)
(-0.0177452 0.00873181 0)
(-0.0198162 0.00899538 0)
(-0.0219319 0.00919067 0)
(-0.0240777 0.00931821 0)
(-0.0262394 0.00937905 0)
(-0.0284025 0.00937466 0)
(-0.0305531 0.00930686 0)
(-0.0326776 0.00917774 0)
(-0.0347629 0.00898964 0)
(-0.0367962 0.00874511 0)
(-0.0387654 0.00844682 0)
(-0.0406589 0.00809762 0)
(-0.0424657 0.00770043 0)
(-0.0441755 0.00725831 0)
(-0.0457787 0.00677436 0)
(-0.0472662 0.00625178 0)
(-0.0486298 0.00569383 0)
(-0.0498621 0.00510384 0)
(-0.0509562 0.00448518 0)
(-0.0519061 0.00384129 0)
(-0.0527066 0.00317565 0)
(-0.0533534 0.00249181 0)
(-0.0538426 0.00179336 0)
(-0.0541716 0.00108397 0)
(-0.0543384 0.00036733 0)
(-0.0543417 -0.000352797 0)
(-0.0541814 -0.0010726 0)
(-0.0538579 -0.00178823 0)
(-0.0533727 -0.00249579 0)
(-0.0527281 -0.00319133 0)
(-0.0519272 -0.00387088 0)
(-0.0509742 -0.00453047 0)
(-0.0498739 -0.00516608 0)
(-0.0486321 -0.00577371 0)
(-0.0472556 -0.0063494 0)
(-0.0457519 -0.00688919 0)
(-0.0441294 -0.00738919 0)
(-0.0423973 -0.00784559 0)
(-0.0405657 -0.00825468 0)
(-0.0386453 -0.00861288 0)
(-0.0366478 -0.00891678 0)
(-0.0345853 -0.00916314 0)
(-0.0324708 -0.00934899 0)
(-0.0303178 -0.0094716 0)
(-0.0281401 -0.00952857 0)
(-0.0259523 -0.00951788 0)
(-0.0237691 -0.00943793 0)
(-0.0216054 -0.00928762 0)
(-0.0194764 -0.0090664 0)
(-0.0173971 -0.0087744 0)
(-0.0153825 -0.00841251 0)
(-0.0134471 -0.00798247 0)
(-0.011605 -0.00748709 0)
(-0.00986942 -0.00693035 0)
(-0.0082528 -0.00631768 0)
(-0.00676627 -0.00565618 0)
(-0.0054195 -0.00495495 0)
(-0.00422036 -0.0042255 0)
(-0.00317458 -0.00348217 0)
(-0.00228539 -0.0027427 0)
(-0.00155302 -0.00202887 0)
(-0.000974197 -0.00136714 0)
(-0.000541375 -0.000789408 0)
(-0.000241298 -0.000333655 0)
(-5.52845e-05 -4.41977e-05 0)
(-7.79737e-05 0.000145394 0)
(-0.000335373 0.000637168 0)
(-0.00073453 0.00129358 0)
(-0.00129189 0.00206774 0)
(-0.00201767 0.00291907 0)
(-0.00291598 0.00381329 0)
(-0.00398678 0.0047219 0)
(-0.00522672 0.00562152 0)
(-0.00662975 0.00649319 0)
(-0.00818765 0.00732176 0)
(-0.00989034 0.00809528 0)
(-0.0117262 0.00880452 0)
(-0.0136825 0.00944249 0)
(-0.0157454 0.0100041 0)
(-0.0179004 0.0104858 0)
(-0.0201324 0.0108855 0)
(-0.022426 0.011202 0)
(-0.0247656 0.0114351 0)
(-0.0271356 0.0115854 0)
(-0.0295203 0.0116541 0)
(-0.0319045 0.0116428 0)
(-0.034273 0.0115538 0)
(-0.0366112 0.0113895 0)
(-0.0389048 0.0111528 0)
(-0.04114 0.0108467 0)
(-0.0433038 0.0104744 0)
(-0.0453836 0.0100394 0)
(-0.0473675 0.00954538 0)
(-0.0492444 0.00899596 0)
(-0.0510036 0.00839499 0)
(-0.0526357 0.00774639 0)
(-0.0541315 0.00705419 0)
(-0.055483 0.00632247 0)
(-0.0566828 0.00555539 0)
(-0.0577244 0.00475721 0)
(-0.0586021 0.00393222 0)
(-0.0593112 0.0030848 0)
(-0.0598477 0.00221939 0)
(-0.0602085 0.00134052 0)
(-0.0603915 0.000452741 0)
(-0.0603955 -0.000439293 0)
(-0.0602201 -0.00133088 0)
(-0.0598659 -0.00221727 0)
(-0.0593346 -0.00309365 0)
(-0.0586285 -0.00395516 0)
(-0.0577512 -0.00479691 0)
(-0.056707 -0.005614 0)
(-0.0555012 -0.00640149 0)
(-0.0541402 -0.00715448 0)
(-0.0526313 -0.00786806 0)
(-0.0509825 -0.00853741 0)
(-0.049203 -0.00915774 0)
(-0.0473028 -0.00972439 0)
(-0.0452927 -0.0102328 0)
(-0.0431844 -0.0106786 0)
(-0.0409904 -0.0110577 0)
(-0.038724 -0.0113661 0)
(-0.036399 -0.0116002 0)
(-0.0340301 -0.0117566 0)
(-0.0316322 -0.0118326 0)
(-0.0292211 -0.0118257 0)
(-0.0268125 -0.0117339 0)
(-0.0244227 -0.0115561 0)
(-0.0220679 -0.0112917 0)
(-0.0197644 -0.0109407 0)
(-0.0175284 -0.0105045 0)
(-0.0153755 -0.00998522 0)
(-0.0133209 -0.00938624 0)
(-0.0113793 -0.00871242 0)
(-0.00956394 -0.00797027 0)
(-0.00788732 -0.00716819 0)
(-0.00636024 -0.00631684 0)
(-0.00499181 -0.00542954 0)
(-0.00378908 -0.00452265 0)
(-0.00275669 -0.00361618 0)
(-0.00189641 -0.00273429 0)
(-0.00120659 -0.00190595 0)
(-0.000681372 -0.00116546 0)
(-0.000308925 -0.000552981 0)
(-7.14948e-05 -0.000114489 0)
(-9.46524e-05 0.000240683 0)
(-0.000404872 0.000923686 0)
(-0.000878483 0.00177181 0)
(-0.00153093 0.00273736 0)
(-0.00237078 0.00377842 0)
(-0.00340019 0.00485903 0)
(-0.00461717 0.00594886 0)
(-0.00601652 0.00702269 0)
(-0.00759055 0.00805982 0)
(-0.00932948 0.00904349 0)
(-0.0112219 0.00996035 0)
(-0.0132548 0.0107999 0)
(-0.0154143 0.0115543 0)
(-0.0176854 0.0122174 0)
(-0.0200525 0.0127854 0)
(-0.0224993 0.0132554 0)
(-0.0250094 0.0136262 0)
(-0.0275662 0.0138975 0)
(-0.0301528 0.0140698 0)
(-0.0327528 0.0141445 0)
(-0.0353496 0.0141235 0)
(-0.0379273 0.0140094 0)
(-0.0404701 0.013805 0)
(-0.0429629 0.0135138 0)
(-0.045391 0.0131392 0)
(-0.0477403 0.0126853 0)
(-0.0499974 0.012156 0)
(-0.0521497 0.0115557 0)
(-0.0541852 0.0108887 0)
(-0.0560927 0.0101598 0)
(-0.0578619 0.00937364 0)
(-0.059483 0.00853497 0)
(-0.0609476 0.00764875 0)
(-0.0622476 0.00671999 0)
(-0.0633761 0.00575379 0)
(-0.064327 0.00475534 0)
(-0.0650953 0.00372992 0)
(-0.0656767 0.00268288 0)
(-0.066068 0.00161964 0)
(-0.0662668 0.000545732 0)
(-0.0662717 -0.000533264 0)
(-0.0660826 -0.00161168 0)
(-0.0657 -0.0026838 0)
(-0.0651256 -0.00374383 0)
(-0.064362 -0.00478593 0)
(-0.0634129 -0.00580421 0)
(-0.062283 -0.00679279 0)
(-0.060978 -0.00774573 0)
(-0.0595046 -0.00865715 0)
(-0.0578707 -0.00952118 0)
(-0.0560848 -0.010332 0)
(-0.0541567 -0.0110839 0)
(-0.0520971 -0.0117713 0)
(-0.0499176 -0.0123888 0)
(-0.0476305 -0.0129311 0)
(-0.0452494 -0.0133933 0)
(-0.0427882 -0.0137707 0)
(-0.0402619 -0.014059 0)
(-0.037686 -0.0142542 0)
(-0.0350765 -0.0143531 0)
(-0.0324501 -0.0143528 0)
(-0.0298238 -0.0142509 0)
(-0.0272149 -0.0140462 0)
(-0.0246407 -0.0137379 0)
(-0.0221186 -0.0133263 0)
(-0.0196658 -0.0128129 0)
(-0.0172994 -0.0122003 0)
(-0.0150355 -0.0114925 0)
(-0.01289 -0.0106952 0)
(-0.0108774 -0.00981605 0)
(-0.00901141 -0.00886461 0)
(-0.00730412 -0.00785305 0)
(-0.00576603 -0.00679635 0)
(-0.00440564 -0.00571279 0)
(-0.00322919 -0.00462435 0)
(-0.00224019 -0.0035573 0)
(-0.00143877 -0.00254265 0)
(-0.000820869 -0.00161663 0)
(-0.000376122 -0.000820956 0)
(-8.75912e-05 -0.000202599 0)
(-0.000111011 0.000354022 0)
(-0.000473103 0.00125969 0)
(-0.00102022 0.00232659 0)
(-0.00176696 0.00350679 0)
(-0.00272028 0.00475751 0)
(-0.00388036 0.00604158 0)
(-0.00524315 0.00732727 0)
(-0.0068015 0.00858785 0)
(-0.00854591 0.00980114 0)
(-0.010465 0.010949 0)
(-0.0125457 0.0120169 0)
(-0.0147739 0.0129932 0)
(-0.0171341 0.013869 0)
(-0.0196104 0.0146377 0)
(-0.0221858 0.0152947 0)
(-0.0248432 0.0158369 0)
(-0.0275648 0.0162628 0)
(-0.0303332 0.0165719 0)
(-0.0331305 0.0167649 0)
(-0.0359391 0.0168434 0)
(-0.0387418 0.0168094 0)
(-0.0415214 0.0166661 0)
(-0.0442615 0.0164166 0)
(-0.0469459 0.0160648 0)
(-0.0495591 0.0156151 0)
(-0.0520863 0.0150718 0)
(-0.0545134 0.0144397 0)
(-0.0568268 0.0137239 0)
(-0.059014 0.0129297 0)
(-0.061063 0.0120623 0)
(-0.062963 0.0111274 0)
(-0.0647038 0.0101306 0)
(-0.0662761 0.00907766 0)
(-0.0676717 0.00797456 0)
(-0.0688831 0.0068273 0)
(-0.0699041 0.005642 0)
(-0.070729 0.00442488 0)
(-0.0713535 0.00318228 0)
(-0.0717742 0.00192059 0)
(-0.0719885 0.000646334 0)
(-0.071995 -0.000633895 0)
(-0.0717934 -0.00191342 0)
(-0.0713844 -0.00318548 0)
(-0.0707697 -0.00444324 0)
(-0.0699521 -0.00567983 0)
(-0.0689354 -0.00688831 0)
(-0.0677247 -0.00806173 0)
(-0.0663259 -0.00919313 0)
(-0.0647462 -0.0102755 0)
(-0.0629936 -0.0113021 0)
(-0.0610775 -0.0122659 0)
(-0.0590081 -0.0131603 0)
(-0.0567966 -0.0139788 0)
(-0.0544552 -0.0147148 0)
(-0.0519972 -0.0153624 0)
(-0.0494366 -0.0159157 0)
(-0.0467884 -0.0163692 0)
(-0.0440683 -0.0167179 0)
(-0.0412926 -0.0169573 0)
(-0.0384785 -0.0170834 0)
(-0.0356435 -0.0170928 0)
(-0.0328056 -0.0169831 0)
(-0.029983 -0.0167525 0)
(-0.0271943 -0.0164004 0)
(-0.0244579 -0.0159272 0)
(-0.0217921 -0.0153344 0)
(-0.019215 -0.0146251 0)
(-0.0167442 -0.0138041 0)
(-0.0143965 -0.0128777 0)
(-0.0121878 -0.0118545 0)
(-0.0101331 -0.0107454 0)
(-0.00824583 -0.00956388 0)
(-0.00653804 -0.0083265 0)
(-0.00501984 -0.0070532 0)
(-0.00369919 -0.00576775 0)
(-0.00258144 -0.00449818 0)
(-0.00166865 -0.00327723 0)
(-0.000958569 -0.0021426 0)
(-0.000442247 -0.0011371 0)
(-0.000103413 -0.000308212 0)
(-0.000126968 0.000484947 0)
(-0.000539737 0.00164424 0)
(-0.00115903 0.0029569 0)
(-0.00199877 0.00437507 0)
(-0.00306443 0.00585553 0)
(-0.00435417 0.00736028 0)
(-0.00586188 0.00885652 0)
(-0.00757837 0.0103163 0)
(-0.00949225 0.0117164 0)
(-0.0115903 0.0130373 0)
(-0.0138581 0.0142635 0)
(-0.0162798 0.0153824 0)
(-0.0188388 0.0163844 0)
(-0.0215176 0.0172621 0)
(-0.0242984 0.0180105 0)
(-0.0271627 0.0186261 0)
(-0.030092 0.0191073 0)
(-0.0330675 0.0194535 0)
(-0.0360705 0.0196655 0)
(-0.0390825 0.0197451 0)
(-0.0420853 0.0196947 0)
(-0.045061 0.0195176 0)
(-0.0479922 0.0192177 0)
(-0.0508619 0.0187994 0)
(-0.053654 0.0182676 0)
(-0.0563528 0.0176273 0)
(-0.0589435 0.0168842 0)
(-0.0614119 0.016044 0)
(-0.0637449 0.0151128 0)
(-0.0659299 0.0140968 0)
(-0.0679555 0.0130024 0)
(-0.0698111 0.0118362 0)
(-0.0714869 0.0106049 0)
(-0.0729742 0.00931535 0)
(-0.0742654 0.00797457 0)
(-0.0753536 0.00658965 0)
(-0.0762332 0.00516781 0)
(-0.0768994 0.0037164 0)
(-0.0773487 0.00224285 0)
(-0.0775785 0.00075473 0)
(-0.0775872 -0.000740313 0)
(-0.0773745 -0.00223452 0)
(-0.076941 -0.00372006 0)
(-0.0762886 -0.00518901 0)
(-0.0754201 -0.00663339 0)
(-0.0743397 -0.00804515 0)
(-0.0730524 -0.00941624 0)
(-0.0715646 -0.0107386 0)
(-0.0698837 -0.0120042 0)
(-0.0680182 -0.0132049 0)
(-0.0659778 -0.014333 0)
(-0.0637732 -0.0153806 0)
(-0.0614161 -0.0163402 0)
(-0.0589194 -0.0172043 0)
(-0.056297 -0.017966 0)
(-0.0535634 -0.0186184 0)
(-0.0507346 -0.0191553 0)
(-0.0478268 -0.0195708 0)
(-0.0448574 -0.0198598 0)
(-0.0418442 -0.0200177 0)
(-0.0388057 -0.0200406 0)
(-0.0357609 -0.0199257 0)
(-0.0327291 -0.019671 0)
(-0.0297297 -0.0192758 0)
(-0.0267822 -0.0187403 0)
(-0.0239062 -0.0180665 0)
(-0.0211207 -0.0172579 0)
(-0.0184446 -0.0163196 0)
(-0.0158959 -0.0152588 0)
(-0.013492 -0.0140851 0)
(-0.011249 -0.0128103 0)
(-0.00918215 -0.0114493 0)
(-0.00730488 -0.0100201 0)
(-0.00562908 -0.00854392 0)
(-0.00416453 -0.00704625 0)
(-0.00291854 -0.00555661 0)
(-0.0018951 -0.00410911 0)
(-0.00109379 -0.0027426 0)
(-0.000506978 -0.00150065 0)
(-0.00011888 -0.000430914 0)
(-0.000142495 0.00063296 0)
(-0.000604652 0.00207628 0)
(-0.00129463 0.00366143 0)
(-0.00222583 0.00534088 0)
(-0.00340235 0.00707124 0)
(-0.00482041 0.008814 0)
(-0.00647181 0.0105356 0)
(-0.00834531 0.0122072 0)
(-0.0104275 0.0138045 0)
(-0.0127035 0.0153073 0)
(-0.0151569 0.0166989 0)
(-0.0177706 0.0179661 0)
(-0.0205265 0.0190985 0)
(-0.0234059 0.0200883 0)
(-0.0263895 0.02093 0)
(-0.0294579 0.0216199 0)
(-0.0325915 0.0221561 0)
(-0.0357705 0.0225383 0)
(-0.0389752 0.0227672 0)
(-0.0421863 0.0228449 0)
(-0.0453846 0.0227741 0)
(-0.0485515 0.0225587 0)
(-0.0516687 0.022203 0)
(-0.0547186 0.021712 0)
(-0.0576843 0.0210911 0)
(-0.0605495 0.0203463 0)
(-0.0632986 0.019484 0)
(-0.065917 0.0185105 0)
(-0.0683909 0.017433 0)
(-0.0707073 0.0162584 0)
(-0.0728542 0.0149942 0)
(-0.0748205 0.0136477 0)
(-0.0765962 0.0122268 0)
(-0.0781722 0.0107392 0)
(-0.0795404 0.009193 0)
(-0.0806938 0.00759624 0)
(-0.0816264 0.00595723 0)
(-0.0823334 0.00428435 0)
(-0.0828109 0.00258614 0)
(-0.0830562 0.000871245 0)
(-0.0830678 -0.000851586 0)
(-0.0828452 -0.00257348 0)
(-0.0823892 -0.00428546 0)
(-0.0817015 -0.00597848 0)
(-0.0807851 -0.0076434 0)
(-0.0796443 -0.00927105 0)
(-0.0782843 -0.0108522 0)
(-0.0767118 -0.0123776 0)
(-0.0749343 -0.0138381 0)
(-0.0729608 -0.0152245 0)
(-0.0708012 -0.0165278 0)
(-0.0684667 -0.0177392 0)
(-0.0659695 -0.0188499 0)
(-0.063323 -0.0198516 0)
(-0.0605416 -0.0207361 0)
(-0.0576405 -0.0214958 0)
(-0.0546362 -0.0221235 0)
(-0.0515459 -0.0226125 0)
(-0.0483875 -0.022957 0)
(-0.0451797 -0.0231516 0)
(-0.041942 -0.0231921 0)
(-0.038694 -0.0230751 0)
(-0.0354562 -0.0227984 0)
(-0.032249 -0.0223611 0)
(-0.0290929 -0.0217634 0)
(-0.0260085 -0.0210076 0)
(-0.0230162 -0.0200972 0)
(-0.0201359 -0.0190381 0)
(-0.0173872 -0.017838 0)
(-0.0147885 -0.0165074 0)
(-0.0123578 -0.0150592 0)
(-0.0101116 -0.0135093 0)
(-0.00806514 -0.0118768 0)
(-0.00623211 -0.0101846 0)
(-0.00462423 -0.00845936 0)
(-0.00325076 -0.00673186 0)
(-0.00211766 -0.00503736 0)
(-0.0012263 -0.00341562 0)
(-0.000570216 -0.0019107 0)
(-0.000133969 -0.000570264 0)
(-0.000157598 0.000797568 0)
(-0.000667864 0.00255469 0)
(-0.00142699 0.00443876 0)
(-0.00244804 0.0064027 0)
(-0.00373381 0.00840317 0)
(-0.00527868 0.0104014 0)
(-0.00707239 0.0123632 0)
(-0.00910159 0.0142592 0)
(-0.0113509 0.0160643 0)
(-0.0138035 0.0177576 0)
(-0.0164414 0.0193216 0)
(-0.0192457 0.0207425 0)
(-0.0221969 0.0220095 0)
(-0.0252749 0.0231141 0)
(-0.0284594 0.0240507 0)
(-0.0317296 0.0248154 0)
(-0.0350648 0.0254062 0)
(-0.0384443 0.0258228 0)
(-0.0418475 0.0260662 0)
(-0.0452541 0.0261387 0)
(-0.0486442 0.0260436 0)
(-0.0519983 0.025785 0)
(-0.0552975 0.0253679 0)
(-0.0585233 0.0247978 0)
(-0.0616582 0.024081 0)
(-0.0646854 0.0232242 0)
(-0.0675886 0.0222344 0)
(-0.0703528 0.0211191 0)
(-0.0729635 0.019886 0)
(-0.0754074 0.0185433 0)
(-0.077672 0.017099 0)
(-0.0797459 0.0155619 0)
(-0.0816186 0.0139404 0)
(-0.0832807 0.0122436 0)
(-0.0847238 0.0104805 0)
(-0.0859407 0.00866014 0)
(-0.0869251 0.006792 0)
(-0.0876721 0.00488554 0)
(-0.0881776 0.0029504 0)
(-0.0884388 0.000996341 0)
(-0.0884541 -0.000966722 0)
(-0.088223 -0.00292877 0)
(-0.0877462 -0.00487966 0)
(-0.0870254 -0.00680916 0)
(-0.0860639 -0.00870694 0)
(-0.0848658 -0.0105626 0)
(-0.0834366 -0.0123658 0)
(-0.0817831 -0.0141061 0)