/*--------------------------------*- C++ -*----------------------------------*\
| =========                 |                                                 |
| \\      /  F ield         | OpenFOAM: The Open Source CFD Toolbox           |
|  \\    /   O peration     | Version:  4.1                                   |
|   \\  /    A nd           | Web:      www.OpenFOAM.org                      |
|    \\/     M anipulation  |                                                 |
\*---------------------------------------------------------------------------*/
FoamFile
{
    version     2.0;
    format      ascii;
    class       volVectorField;
    location    "12";
    object      U;
}
// * * * * * * * * * * * * * * * * * * * * * * * * * * * * * * * * * * * * * //

dimensions      [0 1 -1 0 0 0 0];

internalField   nonuniform List<vector> 
400
(
(0.00020133 -0.000198472 0)
(-8.99233e-05 8.44428e-05 0)
(-0.00154541 0.000333543 0)
(-0.00375677 0.000517161 0)
(-0.00648704 0.000606743 0)
(-0.0093954 0.000636857 0)
(-0.0122552 0.000612416 0)
(-0.0148212 0.000537605 0)
(-0.016864 0.000406221 0)
(-0.018146 0.00021651 0)
(-0.0184596 -2.47878e-05 0)
(-0.0176673 -0.000295207 0)
(-0.0157551 -0.00055664 0)
(-0.0128812 -0.000757921 0)
(-0.00938149 -0.000849515 0)
(-0.00576663 -0.00079177 0)
(-0.00258806 -0.000587203 0)
(-0.000402177 -0.000257924 0)
(0.000561096 7.39503e-05 0)
(0.00031748 0.00030256 0)
(-8.91732e-05 8.0556e-05 0)
(-0.00206808 0.00194031 0)
(-0.0065077 0.00367175 0)
(-0.0124981 0.00491085 0)
(-0.0195296 0.00554295 0)
(-0.0268638 0.00565945 0)
(-0.0339392 0.00529921 0)
(-0.0401626 0.00448193 0)
(-0.0449852 0.00320663 0)
(-0.0478805 0.001505 0)
(-0.0484229 -0.000524823 0)
(-0.0463661 -0.00269115 0)
(-0.0417353 -0.00471216 0)
(-0.0349089 -0.00624732 0)
(-0.02662 -0.00697326 0)
(-0.0179425 -0.00666505 0)
(-0.0100401 -0.00532702 0)
(-0.00408893 -0.00319327 0)
(-0.000616088 -0.000937901 0)
(0.000179244 0.000593602 0)
(-0.000421895 0.00167577 0)
(-0.00438873 0.00651099 0)
(-0.0118584 0.010592 0)
(-0.0213295 0.0133917 0)
(-0.0320761 0.0147598 0)
(-0.043077 0.0148373 0)
(-0.0535437 0.0137018 0)
(-0.0626459 0.0114014 0)
(-0.0696256 0.0079738 0)
(-0.0737773 0.00354191 0)
(-0.0745463 -0.00161879 0)
(-0.0716199 -0.00703542 0)
(-0.0650327 -0.0120497 0)
(-0.0552663 -0.0158893 0)
(-0.0432599 -0.0178211 0)
(-0.0304248 -0.0173362 0)
(-0.018337 -0.0144125 0)
(-0.00868971 -0.0095779 0)
(-0.00234535 -0.00420733 0)
(-1.33279e-05 -3.15407e-06 0)
(-0.000748957 0.00446175 0)
(-0.00667061 0.0135005 0)
(-0.0170464 0.0205113 0)
(-0.0297217 0.0250806 0)
(-0.0437651 0.0271654 0)
(-0.0579329 0.027 0)
(-0.0712945 0.0247195 0)
(-0.0828745 0.0204122 0)
(-0.0917915 0.0141729 0)
(-0.097226 0.00623923 0)
(-0.0985229 -0.00290737 0)
(-0.0952775 -0.0124787 0)
(-0.0874478 -0.0213925 0)
(-0.0754807 -0.0283731 0)
(-0.0603603 -0.0321725 0)
(-0.0437023 -0.0318707 0)
(-0.0274364 -0.0273038 0)
(-0.013847 -0.019241 0)
(-0.00427997 -0.00977872 0)
(-0.000209155 -0.00151406 0)
(-0.00102759 0.00840732 0)
(-0.00871089 0.0228715 0)
(-0.0217348 0.0333717 0)
(-0.0373057 0.0398795 0)
(-0.0542983 0.0426296 0)
(-0.0712898 0.0420224 0)
(-0.0872701 0.0382841 0)
(-0.101189 0.0315555 0)
(-0.112103 0.0219925 0)
(-0.119115 0.00994268 0)
(-0.121462 -0.00391839 0)
(-0.118594 -0.0184984 0)
(-0.110281 -0.0322822 0)
(-0.0967852 -0.0434324 0)
(-0.0789757 -0.0500542 0)
(-0.058557 -0.050612 0)
(-0.0377983 -0.0445686 0)
(-0.0197318 -0.0327775 0)
(-0.0064169 -0.0180555 0)
(-0.000390035 -0.00403291 0)
(-0.00126244 0.0133239 0)
(-0.0104473 0.0342765 0)
(-0.0257532 0.0487491 0)
(-0.0438261 0.0573301 0)
(-0.0633761 0.0607028 0)
(-0.0828489 0.0595224 0)
(-0.101209 0.0541506 0)
(-0.117394 0.0447903 0)
(-0.130447 0.0316434 0)
(-0.139425 0.0151278 0)
(-0.143455 -0.00394687 0)
(-0.141787 -0.0242509 0)
(-0.133903 -0.0438787 0)
(-0.119724 -0.0604064 0)
(-0.0998114 -0.0711485 0)
(-0.0757822 -0.073669 0)
(-0.0501685 -0.0666757 0)
(-0.0268926 -0.0507882 0)
(-0.00902553 -0.0294809 0)
(-0.000606338 -0.00767582 0)
(-0.00144302 0.0190505 0)
(-0.0118097 0.0473895 0)
(-0.0289354 0.066256 0)
(-0.0490159 0.0770443 0)
(-0.0706358 0.0810406 0)
(-0.0921606 0.0792447 0)
(-0.112578 0.0722034 0)
(-0.130869 0.0601896 0)
(-0.146118 0.043425 0)
(-0.157377 0.022335 0)
(-0.163682 -0.00223204 0)
(-0.164073 -0.0288229 0)
(-0.157677 -0.0552424 0)
(-0.143937 -0.0785138 0)
(-0.122886 -0.0950457 0)
(-0.0957786 -0.101172 0)
(-0.0651796 -0.0942918 0)
(-0.035924 -0.0742273 0)
(-0.0124274 -0.0448703 0)
(-0.000907331 -0.0127686 0)
(-0.00156405 0.0253656 0)
(-0.0127428 0.0617631 0)
(-0.0311357 0.0853474 0)
(-0.052611 0.0984546 0)
(-0.0756665 0.103106 0)
(-0.0986394 0.100732 0)
(-0.120585 0.0921195 0)
(-0.140582 0.0776222 0)
(-0.15782 0.0574544 0)
(-0.171406 0.0319765 0)
(-0.180354 0.0019593 0)
(-0.183536 -0.0311764 0)
(-0.179739 -0.0651179 0)
(-0.167847 -0.0964699 0)
(-0.147154 -0.120727 0)
(-0.11818 -0.132701 0)
(-0.0830769 -0.127792 0)
(-0.0473415 -0.1041 0)
(-0.0169851 -0.0652838 0)
(-0.00135996 -0.0198066 0)
(-0.00162274 0.0320415 0)
(-0.0132132 0.076916 0)
(-0.0322499 0.105414 0)
(-0.0543905 0.120893 0)
(-0.0780774 0.126221 0)
(-0.101669 0.12334 0)
(-0.124327 0.113339 0)
(-0.145286 0.0966738 0)
(-0.163903 0.0735361 0)
(-0.179433 0.04416 0)
(-0.190968 0.00912463 0)
(-0.19734 -0.0303581 0)
(-0.197094 -0.0720948 0)
(-0.188587 -0.112538 0)
(-0.170254 -0.14645 0)
(-0.141482 -0.167017 0)
(-0.103366 -0.166932 0)
(-0.0613817 -0.141252 0)
(-0.0230598 -0.0919996 0)
(-0.00204616 -0.0295056 0)
(-0.00162816 0.038827 0)
(-0.0132509 0.0923067 0)
(-0.032285 0.125743 0)
(-0.0542731 0.14353 0)
(-0.0776228 0.149485 0)
(-0.100767 0.146139 0)
(-0.12301 0.134952 0)
(-0.143799 0.116519 0)
(-0.162727 0.0910163 0)
(-0.179294 0.0585199 0)
(-0.192805 0.0193314 0)
(-0.202221 -0.0257116 0)
(-0.206044 -0.0748064 0)
(-0.202278 -0.12464 0)
(-0.188545 -0.169674 0)
(-0.162834 -0.201715 0)
(-0.124478 -0.210296 0)
(-0.0777574 -0.185864 0)
(-0.030978 -0.126284 0)
(-0.00307952 -0.0427962 0)
(-0.00161776 0.0455533 0)
(-0.0129941 0.107476 0)
(-0.0314257 0.145641 0)
(-0.0524072 0.165469 0)
(-0.0743239 0.171845 0)
(-0.0957531 0.16796 0)
(-0.116185 0.155727 0)
(-0.135338 0.135926 0)
(-0.1531 0.108755 0)
(-0.169307 0.0741313 0)
(-0.183601 0.0320436 0)
(-0.195254 -0.0171598 0)
(-0.202981 -0.0723127 0)
(-0.204727 -0.130782 0)
(-0.197586 -0.187376 0)
(-0.178163 -0.233236 0)
(-0.143543 -0.254889 0)
(-0.0953272 -0.236834 0)
(-0.0409311 -0.169036 0)
(-0.00461781 -0.0608339 0)
(-0.00166144 0.0520922 0)
(-0.0127568 0.121985 0)
(-0.0301455 0.164377 0)
(-0.0493071 0.18569 0)
(-0.0686181 0.192059 0)
(-0.086923 0.187391 0)
(-0.103956 0.174141 0)
(-0.119778 0.15332 0)
(-0.134623 0.125188 0)
(-0.148717 0.0895437 0)
(-0.162127 0.0460779 0)
(-0.174579 -0.00538486 0)
(-0.185241 -0.0644659 0)
(-0.192357 -0.129596 0)
(-0.192981 -0.196667 0)
(-0.182728 -0.257298 0)
(-0.156473 -0.29604 0)
(-0.111779 -0.291108 0)
(-0.0527726 -0.220174 0)
(-0.00687175 -0.0849301 0)
(-0.0019211 0.0587681 0)
(-0.0130875 0.135899 0)
(-0.0292133 0.181572 0)
(-0.0458186 0.203334 0)
(-0.0612985 0.208901 0)
(-0.0749775 0.202948 0)
(-0.0869175 0.18854 0)
(-0.0976153 0.166932 0)
(-0.107675 0.138485 0)
(-0.117739 0.102918 0)
(-0.128323 0.0596818 0)
(-0.139669 0.00812852 0)
(-0.151566 -0.0521591 0)
(-0.162877 -0.120879 0)
(-0.171213 -0.195619 0)
(-0.171909 -0.269809 0)
(-0.158388 -0.327939 0)
(-0.123457 -0.343357 0)
(-0.0656517 -0.277885 0)
(-0.0100886 -0.116424 0)
(-0.0026476 0.0658507 0)
(-0.0149761 0.149113 0)
(-0.0299437 0.196588 0)
(-0.0433225 0.21722 0)
(-0.0535928 0.220844 0)
(-0.0609701 0.2129 0)
(-0.0659701 0.197089 0)
(-0.0696531 0.174868 0)
(-0.0730032 0.146694 0)
(-0.0770671 0.112235 0)
(-0.082771 0.0707754 0)
(-0.0908575 0.0213138 0)
(-0.10179 -0.0372232 0)
(-0.115249 -0.105746 0)
(-0.129941 -0.183816 0)
(-0.141776 -0.267819 0)
(-0.144158 -0.344621 0)
(-0.125428 -0.386152 0)
(-0.0775059 -0.337751 0)
(-0.0144725 -0.156192 0)
(-0.00438943 0.0756185 0)
(-0.0197163 0.16334 0)
(-0.0336153 0.209958 0)
(-0.0428527 0.226704 0)
(-0.0461256 0.226535 0)
(-0.045192 0.215516 0)
(-0.0411578 0.197889 0)
(-0.0357977 0.175153 0)
(-0.0304585 0.147776 0)
(-0.0265526 0.115358 0)
(-0.025343 0.077074 0)
(-0.0279919 0.0317149 0)
(-0.035593 -0.0222127 0)
(-0.0486726 -0.0865306 0)
(-0.0673849 -0.162615 0)
(-0.0889442 -0.250355 0)
(-0.10857 -0.3413 0)
(-0.11152 -0.411009 0)
(-0.0843499 -0.392396 0)
(-0.0199763 -0.204223 0)
(-0.00800223 0.0883055 0)
(-0.0299167 0.177682 0)
(-0.0422028 0.219664 0)
(-0.0452646 0.2291 0)
(-0.0383209 0.223134 0)
(-0.0259628 0.208112 0)
(-0.0100062 0.188506 0)
(0.00690455 0.165587 0)
(0.0231425 0.139682 0)
(0.0370167 0.110282 0)
(0.0470457 0.0764978 0)
(0.0517736 0.0370598 0)
(0.0496078 -0.00967353 0)
(0.0393007 -0.0659675 0)
(0.0192019 -0.134448 0)
(-0.0095931 -0.21818 0)
(-0.0458735 -0.314807 0)
(-0.0741014 -0.408978 0)
(-0.0795353 -0.430525 0)
(-0.0257286 -0.257297 0)
(-0.014618 0.114337 0)
(-0.045197 0.197735 0)
(-0.0515508 0.226934 0)
(-0.0431497 0.222616 0)
(-0.0204967 0.207676 0)
(0.00762993 0.187533 0)
(0.0389009 0.16597 0)
(0.0698753 0.143515 0)
(0.0988678 0.120044 0)
(0.124099 0.0948498 0)
(0.144053 0.0669784 0)
(0.157161 0.0352152 0)
(0.161549 -0.00200854 0)
(0.155473 -0.046922 0)
(0.136068 -0.102661 0)
(0.102736 -0.174255 0)
(0.0520458 -0.265319 0)
(-0.0024926 -0.373586 0)
(-0.0516785 -0.439188 0)
(-0.0284933 -0.309992 0)
(-0.0256194 0.14187 0)
(-0.0655821 0.209203 0)
(-0.0479376 0.216824 0)
(-0.0144869 0.195628 0)
(0.034272 0.171964 0)
(0.0841948 0.148555 0)
(0.133935 0.127143 0)
(0.180123 0.107238 0)
(0.221703 0.0880972 0)
(0.257333 0.0688475 0)
(0.285852 0.0485373 0)
(0.305893 0.0261429 0)
(0.315647 0.000377309 0)
(0.313146 -0.0304963 0)
(0.294892 -0.0693086 0)
(0.258812 -0.121084 0)
(0.197135 -0.193249 0)
(0.118799 -0.296442 0)
(0.0178324 -0.395487 0)
(-0.0171659 -0.338997 0)
(-0.0187502 0.214571 0)
(-0.0197984 0.215328 0)
(0.0566437 0.18159 0)
(0.128725 0.14041 0)
(0.205642 0.11055 0)
(0.273874 0.0882914 0)
(0.335493 0.0710321 0)
(0.389085 0.0570719 0)
(0.434994 0.0449984 0)
(0.472964 0.033855 0)
(0.502605 0.0228253 0)
(0.523136 0.0112048 0)
(0.53326 -0.00183793 0)
(0.531232 -0.0172879 0)
(0.513899 -0.0371482 0)
(0.478285 -0.0648371 0)
(0.41468 -0.10859 0)
(0.323999 -0.186723 0)
(0.173207 -0.296559 0)
(0.0429836 -0.335042 0)
(0.211327 0.129532 0)
(0.297265 0.10093 0)
(0.451163 0.0674646 0)
(0.543291 0.0443194 0)
(0.618086 0.0290921 0)
(0.674011 0.0198554 0)
(0.717963 0.0138512 0)
(0.752576 0.00980371 0)
(0.77982 0.00682515 0)
(0.800697 0.00442266 0)
(0.815643 0.00226688 0)
(0.824612 0.000138577 0)
(0.827114 -0.00218455 0)
(0.822152 -0.0048914 0)
(0.807857 -0.00852872 0)
(0.781251 -0.0136944 0)
(0.734306 -0.0228999 0)
(0.6586 -0.0407263 0)
(0.498164 -0.074366 0)
(0.288347 -0.136213 0)
)
;

boundaryField
{
    movingWall
    {
        type            fixedValue;
        value           uniform (1 0 0);
    }
    fixedWalls
    {
        type            noSlip;
    }
    frontAndBack
    {
        type            empty;
    }
}


// ************************************************************************* //
