/*--------------------------------*- C++ -*----------------------------------*\
| =========                 |                                                 |
| \\      /  F ield         | OpenFOAM: The Open Source CFD Toolbox           |
|  \\    /   O peration     | Version:  4.1                                   |
|   \\  /    A nd           | Web:      www.OpenFOAM.org                      |
|    \\/     M anipulation  |                                                 |
\*---------------------------------------------------------------------------*/
FoamFile
{
    version     2.0;
    format      ascii;
    class       volVectorField;
    location    "0.027";
    object      U;
}
// * * * * * * * * * * * * * * * * * * * * * * * * * * * * * * * * * * * * * //

dimensions      [0 1 -1 0 0 0 0];

internalField   nonuniform List<vector> 
1600
(
(3.57455e-06 -4.71525e-06 0)
(-2.48032e-05 4.48113e-05 0)
(-0.000133407 0.000122837 0)
(-0.000334101 0.000207079 0)
(-0.000624941 0.000285926 0)
(-0.000995451 0.000353421 0)
(-0.00143092 0.000406691 0)
(-0.00191479 0.000444686 0)
(-0.00243017 0.000467449 0)
(-0.00296071 0.000475675 0)
(-0.00349111 0.000470438 0)
(-0.00400746 0.000453013 0)
(-0.0044973 0.000424762 0)
(-0.00494975 0.000387065 0)
(-0.00535539 0.000341272 0)
(-0.0057063 0.000288686 0)
(-0.0059959 0.000230554 0)
(-0.00621897 0.000168073 0)
(-0.00637152 0.000102401 0)
(-0.00645079 3.46737e-05 0)
(-0.00645519 -3.39708e-05 0)
(-0.00638438 -0.000102374 0)
(-0.00623922 -0.000169337 0)
(-0.00602188 -0.000233601 0)
(-0.00573587 -0.00029384 0)
(-0.00538615 -0.000348653 0)
(-0.00497922 -0.000396566 0)
(-0.00452319 -0.000436053 0)
(-0.00402783 -0.00046556 0)
(-0.00350461 -0.000483546 0)
(-0.00296668 -0.000488553 0)
(-0.00242875 -0.000479287 0)
(-0.00190689 -0.00045475 0)
(-0.00141813 -0.000414418 0)
(-0.000979864 -0.000358511 0)
(-0.000608879 -0.000288418 0)
(-0.000319796 -0.000207395 0)
(-0.000122643 -0.000121772 0)
(-1.85774e-05 -4.34229e-05 0)
(5.24509e-06 5.59381e-06 0)
(-4.76622e-05 2.17212e-05 0)
(-0.000251037 0.000243403 0)
(-0.000653291 0.000563383 0)
(-0.00127877 0.000904022 0)
(-0.00212319 0.00122203 0)
(-0.00316245 0.00149403 0)
(-0.0043616 0.00170842 0)
(-0.00568026 0.00186076 0)
(-0.00707632 0.00195104 0)
(-0.00850831 0.00198195 0)
(-0.00993693 0.00195778 0)
(-0.0113259 0.00188365 0)
(-0.0126427 0.00176513 0)
(-0.0138583 0.00160783 0)
(-0.0149478 0.0014173 0)
(-0.0158899 0.0011989 0)
(-0.0166671 0.000957759 0)
(-0.0172654 0.000698791 0)
(-0.017674 0.000426763 0)
(-0.0178856 0.000146349 0)
(-0.017896 -0.000137784 0)
(-0.0177044 -0.000420886 0)
(-0.0173133 -0.000698045 0)
(-0.0167286 -0.000964117 0)
(-0.0159599 -0.00121368 0)
(-0.0150206 -0.001441 0)
(-0.0139281 -0.00164007 0)
(-0.012704 -0.00180466 0)
(-0.0113743 -0.00192843 0)
(-0.00996911 -0.0020051 0)
(-0.00852274 -0.00202876 0)
(-0.00707328 -0.00199416 0)
(-0.00566184 -0.00189731 0)
(-0.0043315 -0.00173616 0)
(-0.00312555 -0.00151171 0)
(-0.00208495 -0.0012297 0)
(-0.00124449 -0.000903184 0)
(-0.000627292 -0.000557018 0)
(-0.000235864 -0.00023569 0)
(-4.35658e-05 -1.72819e-05 0)
(-0.000127896 0.000127751 0)
(-0.000578761 0.000640488 0)
(-0.00132476 0.00129715 0)
(-0.00239017 0.00197657 0)
(-0.00376624 0.00260555 0)
(-0.00541862 0.00314205 0)
(-0.00729785 0.00356411 0)
(-0.00934627 0.00386277 0)
(-0.0115031 0.00403748 0)
(-0.0137077 0.00409307 0)
(-0.0159022 0.00403764 0)
(-0.0180328 0.00388118 0)
(-0.0200505 0.00363462 0)
(-0.0219121 0.00330919 0)
(-0.0235796 0.00291605 0)
(-0.025021 0.00246602 0)
(-0.0262096 0.00196955 0)
(-0.027124 0.00143669 0)
(-0.0277479 0.000877185 0)
(-0.0280703 0.000300625 0)
(-0.0280848 -0.000283424 0)
(-0.0277904 -0.000865236 0)
(-0.0271909 -0.00143476 0)
(-0.0262955 -0.00198151 0)
(-0.0251189 -0.00249443 0)
(-0.0236816 -0.00296191 0)
(-0.0220101 -0.00337179 0)
(-0.0201369 -0.00371153 0)
(-0.0181012 -0.00396841 0)
(-0.0159482 -0.00412996 0)
(-0.013729 -0.0041845 0)
(-0.0114999 -0.00412184 0)
(-0.00932146 -0.00393439 0)
(-0.00725644 -0.00361858 0)
(-0.00536732 -0.00317684 0)
(-0.00371265 -0.00262062 0)
(-0.00234172 -0.00197471 0)
(-0.00128766 -0.00128405 0)
(-0.000556834 -0.000624381 0)
(-0.000121812 -0.00011848 0)
(-0.000217509 0.000326795 0)
(-0.000940538 0.00126614 0)
(-0.00204802 0.00235859 0)
(-0.00355557 0.00345454 0)
(-0.00544539 0.00445718 0)
(-0.00767217 0.00530779 0)
(-0.0101738 0.00597426 0)
(-0.0128785 0.00644289 0)
(-0.0157107 0.00671246 0)
(-0.0185948 0.00679008 0)
(-0.021458 0.00668816 0)
(-0.0242326 0.00642232 0)
(-0.0268568 0.00600985 0)
(-0.0292754 0.00546873 0)
(-0.0314403 0.00481692 0)
(-0.0333106 0.004072 0)
(-0.0348519 0.003251 0)
(-0.0360371 0.00237037 0)
(-0.0368454 0.00144611 0)
(-0.0372624 0.000493964 0)
(-0.0372804 -0.000470325 0)
(-0.0368979 -0.00143077 0)
(-0.03612 -0.0023709 0)
(-0.0349584 -0.0032735 0)
(-0.0334323 -0.00412053 0)
(-0.0315676 -0.00489308 0)
(-0.0293983 -0.00557141 0)
(-0.026966 -0.00613521 0)
(-0.0243203 -0.00656407 0)
(-0.0215184 -0.00683804 0)
(-0.0186249 -0.00693858 0)
(-0.0157108 -0.00684978 0)
(-0.0128516 -0.00656 0)
(-0.0101258 -0.00606402 0)
(-0.00761126 -0.00536603 0)
(-0.00538072 -0.00448361 0)
(-0.00349637 -0.00345334 0)
(-0.00200215 -0.00233861 0)
(-0.000913086 -0.00124047 0)
(-0.00020973 -0.00031177 0)
(-0.000307587 0.000621524 0)
(-0.00130408 0.0021296 0)
(-0.00277226 0.00376104 0)
(-0.00471508 0.00535026 0)
(-0.00710207 0.00678423 0)
(-0.00987516 0.00799138 0)
(-0.0129594 0.0089313 0)
(-0.01627 0.00958634 0)
(-0.0197186 0.00995514 0)
(-0.0232168 0.0100476 0)
(-0.0266799 0.00988094 0)
(-0.0300286 0.00947723 0)
(-0.0331905 0.00886098 0)
(-0.0361012 0.00805789 0)
(-0.038704 0.00709379 0)
(-0.0409509 0.00599408 0)
(-0.0428017 0.00478347 0)
(-0.0442242 0.00348592 0)
(-0.0451941 0.00212477 0)
(-0.0456946 0.000723011 0)
(-0.0457164 -0.000696356 0)
(-0.0452579 -0.00210998 0)
(-0.044325 -0.0034938 0)
(-0.0429317 -0.00482276 0)
(-0.0411002 -0.00607061 0)
(-0.0388612 -0.00720987 0)
(-0.0362545 -0.00821199 0)
(-0.0333289 -0.00904768 0)
(-0.0301425 -0.00968756 0)
(-0.0267622 -0.0101031 0)
(-0.0232636 -0.010268 0)
(-0.0197294 -0.0101597 0)
(-0.016248 -0.00976192 0)
(-0.0129111 -0.00906746 0)
(-0.00980979 -0.00808182 0)
(-0.00703033 -0.00682812 0)
(-0.00464792 -0.00535317 0)
(-0.00271931 -0.00373532 0)
(-0.00127189 -0.002094 0)
(-0.000298284 -0.000600075 0)
(-0.000394682 0.00100912 0)
(-0.0016563 0.003228 0)
(-0.00347614 0.0055036 0)
(-0.00584341 0.00766315 0)
(-0.00871298 0.00958401 0)
(-0.0120122 0.0111861 0)
(-0.0156524 0.0124234 0)
(-0.019536 0.0132761 0)
(-0.0235621 0.0137437 0)
(-0.027631 0.0138399 0)
(-0.0316474 0.0135877 0)
(-0.0355221 0.0130163 0)
(-0.0391742 0.0121584 0)
(-0.0425313 0.0110484 0)
(-0.0455302 0.00972074 0)
(-0.0481168 0.00820974 0)
(-0.0502462 0.00654869 0)
(-0.0518826 0.00476995 0)
(-0.0529986 0.00290509 0)
(-0.0535753 0.000985271 0)
(-0.0536024 -0.000958374 0)
(-0.0530778 -0.00289422 0)
(-0.0520083 -0.00478969 0)
(-0.0504092 -0.00661089 0)
(-0.0483052 -0.00832235 0)
(-0.0457307 -0.009887 0)
(-0.0427299 -0.0112663 0)
(-0.0393574 -0.0124209 0)
(-0.0356781 -0.0133114 0)
(-0.0317671 -0.0138995 0)
(-0.027709 -0.01415 0)
(-0.0235969 -0.0140329 0)
(-0.0195305 -0.0135265 0)
(-0.0156135 -0.0126204 0)
(-0.0119499 -0.0113207 0)
(-0.00863957 -0.00965424 0)
(-0.00577184 -0.00767586 0)
(-0.0034181 -0.00547485 0)
(-0.00162022 -0.00318296 0)
(-0.000384023 -0.000980821 0)
(-0.00047809 0.00148518 0)
(-0.00199449 0.00455435 0)
(-0.00415549 0.00758015 0)
(-0.00693694 0.0103882 0)
(-0.0102782 0.0128513 0)
(-0.0140907 0.0148851 0)
(-0.0182711 0.0164409 0)
(-0.0227081 0.017499 0)
(-0.0272885 0.0180618 0)
(-0.0319017 0.0181477 0)
(-0.0364424 0.0177869 0)
(-0.0408128 0.0170167 0)
(-0.0449243 0.015879 0)
(-0.0486979 0.0144177 0)
(-0.052065 0.0126771 0)
(-0.0549668 0.010701 0)
(-0.0573547 0.00853213 0)
(-0.0591895 0.006212 0)
(-0.0604418 0.00378115 0)
(-0.0610911 0.00127954 0)
(-0.0611258 -0.00125283 0)
(-0.0605437 -0.00377536 0)
(-0.0593517 -0.00624624 0)
(-0.0575662 -0.00862195 0)
(-0.0552136 -0.0108569 0)
(-0.0523309 -0.0129036 0)
(-0.0489657 -0.0147125 0)
(-0.0451773 -0.0162331 0)
(-0.0410361 -0.0174148 0)
(-0.0366241 -0.0182084 0)
(-0.032034 -0.0185688 0)
(-0.0273682 -0.0184572 0)
(-0.0227371 -0.017845 0)
(-0.0182562 -0.0167177 0)
(-0.0140429 -0.0150798 0)
(-0.0102113 -0.0129604 0)
(-0.00686631 -0.0104193 0)
(-0.00409539 -0.00755318 0)
(-0.00195587 -0.00450157 0)
(-0.000466351 -0.00144997 0)
(-0.000558554 0.00204572 0)
(-0.00232156 0.00610188 0)
(-0.00481593 0.00998452 0)
(-0.00800506 0.0135207 0)
(-0.0118124 0.0165824 0)
(-0.0161329 0.0190845 0)
(-0.0208471 0.0209789 0)
(-0.0258293 0.0222484 0)
(-0.0309536 0.0229 0)
(-0.0360981 0.0229594 0)
(-0.0411479 0.0224648 0)
(-0.0459973 0.0214633 0)
(-0.0505506 0.020007 0)
(-0.0547233 0.0181504 0)
(-0.058442 0.0159485 0)
(-0.0616443 0.0134553 0)
(-0.0642784 0.0107238 0)
(-0.066303 0.00780516 0)
(-0.0676867 0.00474945 0)
(-0.0684076 0.00160598 0)
(-0.0684534 -0.00157594 0)
(-0.0678213 -0.00474623 0)
(-0.066518 -0.00785327 0)
(-0.0645606 -0.0108433 0)
(-0.0619763 -0.0136601 0)
(-0.058804 -0.0162445 0)
(-0.0550938 -0.0185354 0)
(-0.0509085 -0.02047 0)
(-0.0463233 -0.0219851 0)
(-0.0414261 -0.0230198 0)
(-0.0363169 -0.0235171 0)
(-0.0311073 -0.0234282 0)
(-0.025918 -0.0227159 0)
(-0.0208772 -0.0213597 0)
(-0.016116 -0.0193607 0)
(-0.0117642 -0.0167476 0)
(-0.0079434 -0.0135827 0)
(-0.00475843 -0.00996697 0)
(-0.00228249 -0.00604472 0)
(-0.000546197 -0.00200404 0)
(-0.000637545 0.00268811 0)
(-0.00264329 0.00786653 0)
(-0.00546842 0.0127137 0)
(-0.00906461 0.0170596 0)
(-0.0133394 0.0207781 0)
(-0.0181701 0.0237859 0)
(-0.0234205 0.0260385 0)
(-0.0289493 0.0275241 0)
(-0.0346173 0.0282568 0)
(-0.040291 0.0282711 0)
(-0.0458458 0.0276157 0)
(-0.051168 0.0263488 0)
(-0.0561558 0.0245342 0)
(-0.0607195 0.0222379 0)
(-0.0647819 0.0195266 0)
(-0.0682774 0.0164654 0)
(-0.071152 0.013118 0)
(-0.0733627 0.00954585 0)
(-0.0748765 0.00580885 0)
(-0.0756707 0.00196601 0)
(-0.0757318 -0.00192375 0)
(-0.0750566 -0.00580055 0)
(-0.0736514 -0.00960262 0)
(-0.071533 -0.0132655 0)
(-0.0687292 -0.0167216 0)
(-0.0652796 -0.0198998 0)
(-0.0612362 -0.0227261 0)
(-0.0566642 -0.0251244 0)
(-0.0516429 -0.0270179 0)
(-0.0462655 -0.0283318 0)
(-0.040639 -0.0289963 0)
(-0.0348839 -0.0289503 0)
(-0.0291319 -0.028146 0)
(-0.023524 -0.0265546 0)
(-0.0182067 -0.0241715 0)
(-0.0133265 -0.0210226 0)
(-0.00902328 -0.0171701 0)
(-0.00542026 -0.0127171 0)
(-0.00260693 -0.00781069 0)
(-0.000625283 -0.00264121 0)
(-0.000716879 0.00341164 0)
(-0.0029669 0.00984826 0)
(-0.00612659 0.0157699 0)
(-0.0101363 0.0210097 0)
(-0.0148873 0.025445 0)
(-0.0202385 0.0289971 0)
(-0.0260357 0.0316277 0)
(-0.0321213 0.0333331 0)
(-0.0383415 0.0341374 0)
(-0.0445508 0.0340864 0)
(-0.0506147 0.0332411 0)
(-0.0564119 0.0316728 0)
(-0.0618342 0.0294584 0)
(-0.0667878 0.0266772 0)
(-0.0711919 0.0234081 0)
(-0.0749788 0.0197283 0)
(-0.0780928 0.0157127 0)
(-0.0804895 0.0114333 0)
(-0.0821351 0.00696019 0)
(-0.0830057 0.00236221 0)
(-0.0830875 -0.00229199 0)
(-0.0823761 -0.00693263 0)
(-0.0808771 -0.0114876 0)
(-0.0786068 -0.0158815 0)
(-0.0755925 -0.0200349 0)
(-0.0718738 -0.0238639 0)
(-0.0675037 -0.0272809 0)
(-0.0625493 -0.0301953 0)
(-0.0570928 -0.0325151 0)
(-0.0512323 -0.0341503 0)
(-0.0450817 -0.0350157 0)
(-0.0387702 -0.0350358 0)
(-0.0324413 -0.03415 0)
(-0.0262497 -0.0323184 0)
(-0.0203582 -0.0295281 0)
(-0.0149319 -0.0257996 0)
(-0.0101306 -0.0211926 0)
(-0.00609696 -0.0158105 0)
(-0.00293761 -0.00980257 0)
(-0.00070572 -0.00336183 0)
(-0.000798505 0.00421765 0)
(-0.00330013 0.0120517 0)
(-0.00680524 0.0191611 0)
(-0.0112427 0.0253821 0)
(-0.0164865 0.0305966 0)
(-0.0223765 0.0347327 0)
(-0.028739 0.0377612 0)
(-0.0353987 0.0396891 0)
(-0.0421867 0.0405536 0)
(-0.0489447 0.0404145 0)
(-0.0555281 0.0393477 0)
(-0.0618077 0.0374397 0)
(-0.0676699 0.0347824 0)
(-0.0730166 0.0314694 0)
(-0.0777646 0.0275933 0)
(-0.0818444 0.0232441 0)
(-0.0851994 0.0185082 0)
(-0.0877844 0.0134687 0)
(-0.089565 0.00820578 0)
(-0.090517 0.00279813 0)
(-0.0906254 -0.00267597 0)
(-0.0898851 -0.00813692 0)
(-0.0883004 -0.0135023 0)
(-0.0858863 -0.0186856 0)
(-0.0826691 -0.0235951 0)
(-0.0786876 -0.0281339 0)
(-0.0739946 -0.0321997 0)
(-0.0686582 -0.0356859 0)
(-0.062763 -0.0384841 0)
(-0.0564113 -0.0404867 0)
(-0.0497234 -0.0415911 0)
(-0.0428378 -0.0417046 0)
(-0.0359098 -0.0407508 0)
(-0.0291091 -0.0386757 0)
(-0.0226164 -0.0354551 0)
(-0.016617 -0.0311015 0)
(-0.0112921 -0.0256696 0)
(-0.00680609 -0.0192617 0)
(-0.00328368 -0.0120291 0)
(-0.000789794 -0.0041687 0)
(-0.000884393 0.0051096 0)
(-0.00365085 0.0144863 0)
(-0.00751939 0.022902 0)
(-0.0124065 0.0301952 0)
(-0.0181679 0.0362536 0)
(-0.0246223 0.0410144 0)
(-0.0315754 0.0444599 0)
(-0.0388332 0.0466115 0)
(-0.0462101 0.0475223 0)
(-0.0535346 0.0472693 0)
(-0.0606518 0.0459464 0)
(-0.0674248 0.0436574 0)
(-0.0737347 0.0405114 0)
(-0.07948 0.0366179 0)
(-0.0845756 0.0320844 0)
(-0.0889512 0.0270143 0)
(-0.0925498 0.0215063 0)
(-0.0953263 0.0156543 0)
(-0.0972463 0.00954891 0)
(-0.0982849 0.00327812 0)
(-0.0984268 -0.00307036 0)
(-0.0976654 -0.0094074 0)
(-0.0960037 -0.0156405 0)
(-0.0934545 -0.021672 0)
(-0.0900424 -0.0273982 0)
(-0.0858042 -0.0327079 0)
(-0.0807917 -0.0374837 0)
(-0.0750727 -0.0416018 0)
(-0.0687334 -0.0449352 0)
(-0.0618795 -0.0473568 0)
(-0.0546375 -0.0487434 0)
(-0.0471549 -0.0489825 0)
(-0.0395995 -0.047978 0)
(-0.0321571 -0.0456588 0)
(-0.0250276 -0.0419857 0)
(-0.0184187 -0.0369599 0)
(-0.0125355 -0.0306292 0)
(-0.00756574 -0.0230931 0)
(-0.00365454 -0.0145048 0)
(-0.000879846 -0.00506715 0)
(-0.000976485 0.00609303 0)
(-0.0040268 0.0171666 0)
(-0.00828384 0.0270134 0)
(-0.0136501 0.0354742 0)
(-0.0199611 0.0424437 0)
(-0.0270127 0.04787 0)
(-0.034588 0.0517504 0)
(-0.0424724 0.0541241 0)
(-0.0504631 0.0550639 0)
(-0.0583747 0.0546676 0)
(-0.0660417 0.0530498 0)
(-0.0733198 0.0503351 0)
(-0.0800854 0.0466515 0)
(-0.0862344 0.0421266 0)
(-0.0916808 0.0368839 0)
(-0.0963544 0.0310409 0)
(-0.100199 0.0247088 0)
(-0.103169 0.0179928 0)
(-0.105232 0.0109932 0)
(-0.106363 0.00380706 0)
(-0.106546 -0.00346904 0)
(-0.105773 -0.010737 0)
(-0.104044 -0.0178948 0)
(-0.10137 -0.024834 0)
(-0.0977725 -0.0314385 0)
(-0.0932858 -0.037583 0)
(-0.0879589 -0.0431336 0)
(-0.0818584 -0.0479484 0)
(-0.0750704 -0.0518796 0)
(-0.0677033 -0.0547778 0)
(-0.0598891 -0.0564967 0)
(-0.051784 -0.0568996 0)
(-0.0435687 -0.0558674 0)
(-0.0354461 -0.0533072 0)
(-0.0276372 -0.0491612 0)
(-0.020374 -0.0434155 0)
(-0.0138881 -0.0361084 0)
(-0.00839397 -0.027335 0)
(-0.00405959 -0.0172504 0)
(-0.000978218 -0.00606507 0)
(-0.00107667 0.00717552 0)
(-0.00443549 0.0201114 0)
(-0.00911289 0.0315224 0)
(-0.014995 0.0412512 0)
(-0.0218946 0.0492007 0)
(-0.029582 0.0553329 0)
(-0.0378155 0.0596637 0)
(-0.0463585 0.0622541 0)
(-0.0549897 0.0632008 0)
(-0.0635092 0.0626265 0)
(-0.0717411 0.0606704 0)
(-0.0795341 0.0574807 0)
(-0.0867609 0.0532073 0)
(-0.0933158 0.0479975 0)
(-0.099113 0.041992 0)
(-0.104083 0.0353235 0)
(-0.108173 0.0281161 0)
(-0.111338 0.0204856 0)
(-0.113547 0.0125418 0)
(-0.114775 0.00439017 0)
(-0.115006 -0.00386485 0)
(-0.11423 -0.0121171 0)
(-0.112446 -0.0202556 0)
(-0.109661 -0.0281618 0)
(-0.105892 -0.0357074 0)
(-0.101169 -0.0427529 0)
(-0.0955373 -0.0491472 0)
(-0.0890602 -0.0547284 0)
(-0.0818228 -0.0593264 0)
(-0.0739345 -0.0627665 0)
(-0.0655315 -0.0648753 0)
(-0.0567785 -0.0654883 0)
(-0.0478692 -0.0644584 0)
(-0.0390243 -0.061666 0)
(-0.0304876 -0.0570299 0)
(-0.0225179 -0.0505172 0)
(-0.0153766 -0.0421528 0)
(-0.00930851 -0.0320257 0)
(-0.00450811 -0.0202924 0)
(-0.00108722 -0.00717285 0)
(-0.00118677 0.00836655 0)
(-0.00488416 0.0233445 0)
(-0.0100202 0.0364621 0)
(-0.0164615 0.0475642 0)
(-0.0239945 0.0565639 0)
(-0.0323609 0.0634407 0)
(-0.0412916 0.0682334 0)
(-0.0505262 0.0710295 0)
(-0.0598238 0.0719549 0)
(-0.0689696 0.0711616 0)
(-0.0777776 0.0688178 0)
(-0.0860904 0.0650987 0)
(-0.0937781 0.0601791 0)
(-0.100735 0.0542281 0)
(-0.106877 0.0474052 0)
(-0.112138 0.0398587 0)
(-0.116467 0.0317255 0)
(-0.119823 0.0231322 0)
(-0.122177 0.0141969 0)
(-0.123506 0.00503266 0)
(-0.123793 -0.00424949 0)
(-0.123026 -0.0135365 0)
(-0.121202 -0.0227096 0)
(-0.118323 -0.031641 0)
(-0.1144 -0.0401909 0)
(-0.109459 -0.0482054 0)
(-0.103539 -0.0555158 0)
(-0.0966979 -0.0619389 0)
(-0.0890173 -0.0672797 0)
(-0.080606 -0.0713353 0)
(-0.0716029 -0.0739014 0)
(-0.0621801 -0.0747804 0)
(-0.052544 -0.0737919 0)
(-0.0429336 -0.070784 0)
(-0.0336171 -0.0656462 0)
(-0.0248831 -0.0583211 0)
(-0.0170265 -0.048816 0)
(-0.0103265 -0.0372111 0)
(-0.00500918 -0.0236635 0)
(-0.00120912 -0.0084034 0)
(-0.00130858 0.00967749 0)
(-0.00537982 0.0268935 0)
(-0.0110187 0.0418705 0)
(-0.0180682 0.0544562 0)
(-0.0262841 0.0645768 0)
(-0.0353756 0.0722337 0)
(-0.0450434 0.0774938 0)
(-0.055001 0.0804774 0)
(-0.0649869 0.0813449 0)
(-0.0747716 0.0802836 0)
(-0.0841595 0.0774953 0)
(-0.0929885 0.0731866 0)
(-0.101128 0.0675602 0)
(-0.108473 0.0608091 0)
(-0.114945 0.053113 0)
(-0.120482 0.0446366 0)
(-0.125037 0.0355296 0)
(-0.128575 0.0259284 0)
(-0.13107 0.0159587 0)
(-0.132499 0.00573934 0)
(-0.132848 -0.00461333 0)
(-0.132103 -0.0149811 0)
(-0.130257 -0.025239 0)
(-0.127306 -0.0352513 0)
(-0.123256 -0.0448676 0)
(-0.118124 -0.05392 0)
(-0.111942 -0.0622218 0)
(-0.104759 -0.0695674 0)
(-0.0966525 -0.0757346 0)
(-0.0877267 -0.0804889 0)
(-0.0781216 -0.0835905 0)
(-0.0680146 -0.0848034 0)
(-0.0576239 -0.0839073 0)
(-0.0472072 -0.080711 0)
(-0.0370585 -0.0750675 0)
(-0.027499 -0.0668886 0)
(-0.0188611 -0.0561583 0)
(-0.0114642 -0.042944 0)
(-0.00557157 -0.0274014 0)
(-0.00134613 -0.00977207 0)
(-0.00144383 0.0111215 0)
(-0.00592924 0.0307902 0)
(-0.0121206 0.0477903 0)
(-0.019832 0.0619743 0)
(-0.0287835 0.0732855 0)
(-0.038647 0.0817525 0)
(-0.0490897 0.0874774 0)
(-0.0597967 0.0906201 0)
(-0.0704855 0.0913831 0)
(-0.0809117 0.0899949 0)
(-0.0908718 0.0866971 0)
(-0.100201 0.0817318 0)
(-0.108769 0.0753332 0)
(-0.116477 0.0677208 0)
(-0.12325 0.0590957 0)
(-0.129036 0.0496395 0)
(-0.133795 0.0395142 0)
(-0.137497 0.0288651 0)
(-0.14012 0.0178241 0)
(-0.141648 0.00651415 0)
(-0.142064 -0.00494535 0)
(-0.141354 -0.016433 0)
(-0.139507 -0.0278198 0)
(-0.136513 -0.038964 0)
(-0.132371 -0.0497057 0)
(-0.127086 -0.0598642 0)
(-0.12068 -0.0692346 0)
(-0.113193 -0.0775879 0)
(-0.104692 -0.0846726 0)
(-0.0952755 -0.0902192 0)
(-0.0850803 -0.0939472 0)
(-0.0742871 -0.0955759 0)
(-0.0631239 -0.0948377 0)
(-0.0518668 -0.0914939 0)
(-0.0408367 -0.0853521 0)
(-0.0303899 -0.0762847 0)
(-0.0209015 -0.0642455 0)
(-0.0127369 -0.0492832 0)
(-0.00620374 -0.0315494 0)
(-0.0015004 -0.0112966 0)
(-0.00159426 0.0127136 0)
(-0.00653901 0.0350699 0)
(-0.0133374 0.0542682 0)
(-0.0217682 0.0701684 0)
(-0.0315089 0.0827363 0)
(-0.0421894 0.0920355 0)
(-0.0534391 0.0982112 0)
(-0.0649132 0.101472 0)
(-0.0763071 0.102071 0)
(-0.0873631 0.100286 0)
(-0.097871 0.0964033 0)
(-0.107666 0.0907073 0)
(-0.116622 0.0834666 0)
(-0.124648 0.0749299 0)
(-0.13168 0.065321 0)
(-0.137673 0.0548383 0)
(-0.142598 0.0436559 0)
(-0.146435 0.0319265 0)
(-0.149169 0.0197861 0)
(-0.150786 0.00735953 0)
(-0.151271 -0.00523316 0)
(-0.150611 -0.0178702 0)
(-0.148788 -0.0304211 0)
(-0.145788 -0.0427404 0)
(-0.141597 -0.0546611 0)
(-0.13621 -0.0659906 0)
(-0.129636 -0.0765067 0)
(-0.1219 -0.0859564 0)
(-0.113057 -0.0940568 0)
(-0.103193 -0.1005 0)
(-0.0924397 -0.104959 0)
(-0.0809766 -0.107102 0)
(-0.0690388 -0.106605 0)
(-0.0569193 -0.103172 0)
(-0.0449663 -0.0965546 0)
(-0.0335742 -0.0865747 0)
(-0.0231653 -0.0731464 0)
(-0.0141582 -0.0562925 0)
(-0.00691361 -0.0361552 0)
(-0.00167398 -0.012997 0)
(-0.00176158 0.0144704 0)
(-0.00721559 0.039771 0)
(-0.0146797 0.0613536 0)
(-0.0238892 0.0790893 0)
(-0.0344718 0.0929739 0)
(-0.0460087 0.103115 0)
(-0.058088 0.109713 0)
(-0.0703328 0.113035 0)
(-0.0824168 0.113395 0)
(-0.0940701 0.111128 0)
(-0.105079 0.106576 0)
(-0.115283 0.100067 0)
(-0.124563 0.0919102 0)
(-0.132841 0.0823855 0)
(-0.140065 0.0717405 0)
(-0.146206 0.0601905 0)
(-0.151245 0.0479202 0)
(-0.155175 0.0350881 0)
(-0.157988 0.021832 0)
(-0.159678 0.00827576 0)
(-0.160232 -0.00546316 0)
(-0.159636 -0.0192658 0)
(-0.157867 -0.0330034 0)
(-0.154904 -0.0465298 0)
(-0.150721 -0.0596738 0)
(-0.145299 -0.0722331 0)
(-0.138631 -0.0839692 0)
(-0.130724 -0.0946053 0)
(-0.121614 -0.103826 0)
(-0.111374 -0.11128 0)
(-0.100121 -0.116591 0)
(-0.0880291 -0.119366 0)
(-0.0753373 -0.119215 0)
(-0.0623522 -0.115772 0)
(-0.0494488 -0.108721 0)
(-0.0370617 -0.0978204 0)
(-0.0256654 -0.0829308 0)
(-0.0157398 -0.0640389 0)
(-0.0077085 -0.0412708 0)
(-0.00186881 -0.0148955 0)
(-0.00194756 0.0164104 0)
(-0.00796538 0.044935 0)
(-0.0161573 0.0690975 0)
(-0.0262053 0.0887865 0)
(-0.0376779 0.104038 0)
(-0.0501012 0.115015 0)
(-0.0630176 0.121987 0)
(-0.0760166 0.125294 0)
(-0.0887513 0.12532 0)
(-0.100943 0.122472 0)
(-0.112378 0.117151 0)
(-0.122903 0.10974 0)
(-0.132415 0.10059 0)
(-0.140851 0.090015 0)
(-0.148177 0.0782865 0)
(-0.154381 0.0656364 0)
(-0.159462 0.0522586 0)
(-0.163426 0.0383151 0)
(-0.166276 0.0239424 0)
(-0.168014 0.00926 0)
(-0.168631 -0.00562081 0)
(-0.168112 -0.0205877 0)
(-0.166431 -0.0355177 0)
(-0.163556 -0.0502679 0)
(-0.159451 -0.0646661 0)
(-0.15408 -0.0785035 0)
(-0.147414 -0.0915275 0)
(-0.13944 -0.103438 0)
(-0.130171 -0.113886 0)
(-0.119656 -0.122476 0)
(-0.107995 -0.128774 0)
(-0.0953495 -0.132319 0)
(-0.0819553 -0.132644 0)
(-0.0681284 -0.1293 0)
(-0.0542685 -0.121884 0)
(-0.0408514 -0.110075 0)
(-0.0284089 -0.0936653 0)
(-0.0174905 -0.0725906 0)
(-0.00859478 -0.0469509 0)
(-0.00208667 -0.0170164 0)
(-0.00215402 0.0185538 0)
(-0.00879481 0.0506056 0)
(-0.017779 0.0775517 0)
(-0.0287232 0.0993062 0)
(-0.041126 0.115958 0)
(-0.0544507 0.127744 0)
(-0.0681899 0.135017 0)
(-0.0818994 0.138206 0)
(-0.0952135 0.137784 0)
(-0.107849 0.134237 0)
(-0.119598 0.128038 0)
(-0.130323 0.119627 0)
(-0.139939 0.109405 0)
(-0.148406 0.0977196 0)
(-0.155713 0.084868 0)
(-0.16187 0.0710966 0)
(-0.166897 0.0566067 0)
(-0.170817 0.0415603 0)
(-0.173646 0.0260894 0)
(-0.175396 0.0103054 0)
(-0.176064 -0.00569119 0)
(-0.175634 -0.021799 0)
(-0.174077 -0.0379054 0)
(-0.171352 -0.0538751 0)
(-0.167408 -0.0695399 0)
(-0.162192 -0.0846881 0)
(-0.15565 -0.0990565 0)
(-0.147744 -0.112324 0)
(-0.138457 -0.124108 0)
(-0.127809 -0.133966 0)
(-0.115874 -0.141402 0)
(-0.102792 -0.145878 0)
(-0.0887876 -0.146837 0)
(-0.0741794 -0.14373 0)
(-0.0593876 -0.136051 0)
(-0.0449284 -0.123376 0)
(-0.031395 -0.105409 0)
(-0.0194158 -0.0820142 0)
(-0.00957767 -0.0532521 0)
(-0.00232912 -0.019386 0)
(-0.0023829 0.0209227 0)
(-0.00971041 0.0568286 0)
(-0.0195527 0.0867663 0)
(-0.0314457 0.110687 0)
(-0.0448058 0.128751 0)
(-0.0590252 0.141289 0)
(-0.0735436 0.148759 0)
(-0.0878833 0.1517 0)
(-0.101665 0.150689 0)
(-0.114605 0.146306 0)
(-0.126513 0.139104 0)
(-0.13727 0.129592 0)
(-0.146821 0.118219 0)
(-0.155154 0.10537 0)
(-0.162287 0.0913671 0)
(-0.168257 0.076469 0)
(-0.173109 0.060881 0)
(-0.176885 0.0447621 0)
(-0.17962 0.0282355 0)
(-0.181334 0.0113997 0)
(-0.182032 -0.00565979 0)
(-0.1817 -0.0228579 0)
(-0.180306 -0.0400974 0)
(-0.177799 -0.0572563 0)
(-0.174114 -0.0741752 0)
(-0.169177 -0.0906452 0)
(-0.162909 -0.106397 0)
(-0.155239 -0.121092 0)
(-0.146116 -0.134316 0)
(-0.135523 -0.145578 0)
(-0.123498 -0.154316 0)
(-0.110149 -0.159907 0)
(-0.0956785 -0.16169 0)
(-0.0803978 -0.158999 0)
(-0.0647401 -0.151198 0)
(-0.0492593 -0.137739 0)
(-0.0346125 -0.118206 0)
(-0.0215161 -0.0923709 0)
(-0.0106607 -0.0602312 0)
(-0.00259739 -0.0220318 0)
(-0.00263626 0.0235415 0)
(-0.0107189 0.0636511 0)
(-0.0214846 0.096788 0)
(-0.0343704 0.122958 0)
(-0.0486957 0.142414 0)
(-0.0637731 0.155609 0)
(-0.0789871 0.163133 0)
(-0.0938299 0.16566 0)
(-0.107914 0.163891 0)
(-0.120969 0.158514 0)
(-0.132825 0.150176 0)
(-0.143397 0.139456 0)
(-0.152666 0.126858 0)
(-0.160656 0.112803 0)
(-0.167423 0.0976361 0)
(-0.173034 0.081626 0)
(-0.177562 0.0649779 0)
(-0.181072 0.0478433 0)
(-0.183618 0.0303319 0)
(-0.185235 0.0125245 0)
(-0.185934 -0.00551365 0)
(-0.185706 -0.023719 0)
(-0.184515 -0.0420155 0)
(-0.182301 -0.0603005 0)
(-0.178986 -0.0784298 0)
(-0.174472 -0.0962035 0)
(-0.168654 -0.113352 0)
(-0.161425 -0.129525 0)
(-0.152693 -0.144281 0)
(-0.142395 -0.157081 0)
(-0.130522 -0.167295 0)
(-0.117139 -0.174207 0)
(-0.10241 -0.177039 0)
(-0.0866268 -0.174985 0)
(-0.0702243 -0.167257 0)
(-0.0537872 -0.153145 0)
(-0.0380366 -0.132082 0)
(-0.0237854 -0.103712 0)
(-0.0118451 -0.0679429 0)
(-0.00289231 -0.0249827 0)
(-0.00291637 0.0264365 0)
(-0.0118273 0.0711206 0)
(-0.0235793 0.107657 0)
(-0.0374878 0.136129 0)
(-0.0527584 0.156915 0)
(-0.0686163 0.170624 0)
(-0.0843904 0.178014 0)
(-0.0995493 0.17992 0)
(-0.113709 0.177192 0)
(-0.126621 0.170644 0)
(-0.138153 0.161025 0)
(-0.148265 0.148992 0)
(-0.156982 0.135104 0)
(-0.164376 0.119817 0)
(-0.170542 0.103495 0)
(-0.175587 0.0864135 0)
(-0.179613 0.068772 0)
(-0.182714 0.0507097 0)
(-0.184961 0.0323175 0)
(-0.186404 0.0136535 0)
(-0.187067 -0.00524277 0)
(-0.186941 -0.0243348 0)
(-0.185992 -0.0435739 0)
(-0.184152 -0.0628829 0)
(-0.181328 -0.0821402 0)
(-0.177401 -0.101162 0)
(-0.172236 -0.119688 0)
(-0.165689 -0.137362 0)
(-0.15762 -0.15372 0)
(-0.147914 -0.168183 0)
(-0.136501 -0.18005 0)
(-0.123388 -0.188507 0)
(-0.108686 -0.192646 0)
(-0.0926479 -0.191501 0)
(-0.0756926 -0.184097 0)
(-0.0584243 -0.169528 0)
(-0.0416242 -0.147029 0)
(-0.0262088 -0.116071 0)
(-0.013129 -0.076437 0)
(-0.00321401 -0.0282684 0)
(-0.00322565 0.029637 0)
(-0.0130423 0.0792845 0)
(-0.0258378 0.119404 0)
(-0.0407778 0.150187 0)
(-0.0569354 0.172184 0)
(-0.0734414 0.186204 0)
(-0.0895729 0.193214 0)
(-0.104786 0.194247 0)
(-0.118714 0.190328 0)
(-0.131151 0.182414 0)
(-0.142016 0.171366 0)
(-0.151327 0.157921 0)
(-0.159168 0.142693 0)
(-0.165663 0.126171 0)
(-0.170956 0.108732 0)
(-0.175195 0.0906501 0)
(-0.178517 0.0721162 0)
(-0.18104 0.05325 0)
(-0.18286 0.0341186 0)
(-0.184042 0.0147517 0)
(-0.184619 -0.00484198 0)
(-0.18459 -0.0246585 0)
(-0.183919 -0.0446821 0)
(-0.182535 -0.0648683 0)
(-0.18033 -0.0851253 0)
(-0.177168 -0.105295 0)
(-0.172884 -0.125133 0)
(-0.167292 -0.144289 0)
(-0.160206 -0.162289 0)
(-0.151446 -0.178517 0)
(-0.140873 -0.192207 0)
(-0.128418 -0.202445 0)
(-0.114119 -0.208182 0)
(-0.0981652 -0.208269 0)
(-0.0809383 -0.201513 0)
(-0.063042 -0.18676 0)
(-0.045308 -0.162996 0)
(-0.0287594 -0.129461 0)
(-0.0145059 -0.0857547 0)
(-0.00356169 -0.0319186 0)
(-0.00356654 0.0331754 0)
(-0.0143703 0.0881881 0)
(-0.0282558 0.132043 0)
(-0.0442048 0.165088 0)
(-0.0611373 0.1881 0)
(-0.0780861 0.202151 0)
(-0.0942859 0.20847 0)
(-0.109198 0.208329 0)
(-0.122497 0.202955 0)
(-0.134038 0.193467 0)
(-0.143814 0.180843 0)
(-0.151917 0.165904 0)
(-0.158499 0.149312 0)
(-0.163747 0.131583 0)
(-0.167859 0.1131 0)
(-0.171023 0.0941289 0)
(-0.173414 0.0748429 0)
(-0.175177 0.0553371 0)
(-0.176428 0.0356487 0)
(-0.177249 0.0157744 0)
(-0.177683 -0.00431291 0)
(-0.177736 -0.0246466 0)
(-0.177375 -0.0452497 0)
(-0.176526 -0.0661163 0)
(-0.175073 -0.0871922 0)
(-0.172862 -0.108354 0)
(-0.169701 -0.129386 0)
(-0.165369 -0.149955 0)
(-0.159624 -0.169587 0)
(-0.152221 -0.187645 0)
(-0.142942 -0.203307 0)
(-0.131622 -0.215562 0)
(-0.118204 -0.223213 0)
(-0.102785 -0.224908 0)
(-0.0856777 -0.2192 0)
(-0.0674574 -0.204633 0)
(-0.0489867 -0.179874 0)
(-0.0313925 -0.143855 0)
(-0.0159622 -0.0959239 0)
(-0.00393293 -0.0359621 0)
(-0.00394113 0.0370876 0)
(-0.015815 0.0978721 0)
(-0.0308184 0.145565 0)
(-0.0477073 0.180736 0)
(-0.0652283 0.204471 0)
(-0.0823181 0.218181 0)
(-0.0981876 0.223423 0)
(-0.112331 0.221756 0)
(-0.124495 0.214638 0)
(-0.134624 0.203364 0)
(-0.142806 0.189033 0)
(-0.149224 0.172544 0)
(-0.154113 0.154602 0)
(-0.157727 0.135737 0)
(-0.160318 0.116327 0)
(-0.162121 0.0966216 0)
(-0.16334 0.0767683 0)
(-0.164149 0.0568306 0)
(-0.164682 0.0368104 0)
(-0.165034 0.016667 0)
(-0.16526 -0.00366618 0)
(-0.165375 -0.024264 0)
(-0.165349 -0.0451922 0)
(-0.165108 -0.0664893 0)
(-0.164533 -0.088146 0)
(-0.163459 -0.110083 0)
(-0.161672 -0.132124 0)
(-0.158918 -0.153969 0)
(-0.154905 -0.175161 0)
(-0.149321 -0.195059 0)
(-0.141857 -0.2128 0)
(-0.132241 -0.227289 0)
(-0.120294 -0.237181 0)
(-0.105987 -0.240908 0)
(-0.089525 -0.236729 0)
(-0.071412 -0.22283 0)
(-0.0525104 -0.197473 0)
(-0.0340376 -0.159183 0)
(-0.0174739 -0.106952 0)
(-0.00432278 -0.0404258 0)
(-0.00435027 0.0414134 0)
(-0.0173742 0.108368 0)
(-0.0334912 0.159924 0)
(-0.051182 0.196969 0)
(-0.0690013 0.22101 0)
(-0.0858027 0.233898 0)
(-0.100806 0.237597 0)
(-0.113579 0.234004 0)
(-0.123979 0.224838 0)
(-0.132076 0.211577 0)
(-0.138077 0.19544 0)
(-0.142275 0.177391 0)
(-0.144994 0.158163 0)
(-0.146558 0.138285 0)
(-0.147276 0.118119 0)
(-0.147421 0.0978862 0)
(-0.147228 0.0776984 0)
(-0.14689 0.0575816 0)
(-0.146555 0.0374979 0)
(-0.146332 0.0173658 0)
(-0.146284 -0.00292326 0)
(-0.146432 -0.0234876 0)
(-0.146755 -0.0444387 0)
(-0.147183 -0.0658632 0)
(-0.147599 -0.0878026 0)
(-0.147835 -0.11023 0)
(-0.147664 -0.133021 0)
(-0.146808 -0.155926 0)
(-0.144933 -0.178524 0)
(-0.141661 -0.200192 0)
(-0.136593 -0.220054 0)
(-0.129337 -0.236948 0)
(-0.119566 -0.249397 0)
(-0.107092 -0.25561 0)
(-0.0919568 -0.253524 0)
(-0.0745425 -0.240901 0)
(-0.0556587 -0.215498 0)
(-0.0365841 -0.175302 0)
(-0.0189991 -0.118818 0)
(-0.00472192 -0.0453331 0)
(-0.00479161 0.0461967 0)
(-0.0190317 0.119692 0)
(-0.0362035 0.17502 0)
(-0.0544541 0.21353 0)
(-0.0721368 0.237302 0)
(-0.0880529 0.248761 0)
(-0.101483 0.250368 0)
(-0.112127 0.244415 0)
(-0.120004 0.232901 0)
(-0.125346 0.217489 0)
(-0.128509 0.199501 0)
(-0.129905 0.179947 0)
(-0.129953 0.159565 0)
(-0.129049 0.138866 0)
(-0.127546 0.118177 0)
(-0.125752 0.0976788 0)
(-0.123921 0.0774396 0)
(-0.122258 0.057441 0)
(-0.120921 0.0376025 0)
(-0.120024 0.0177998 0)
(-0.119635 -0.00211778 0)
(-0.119784 -0.0223121 0)
(-0.120458 -0.0429406 0)
(-0.121597 -0.0641396 0)
(-0.123094 -0.0860049 0)
(-0.124785 -0.108569 0)
(-0.126445 -0.131772 0)
(-0.127785 -0.155428 0)
(-0.128441 -0.179177 0)
(-0.127984 -0.202443 0)
(-0.125927 -0.224368 0)
(-0.121755 -0.243759 0)