/*--------------------------------*- C++ -*----------------------------------*\
| =========                 |                                                 |
| \\      /  F ield         | OpenFOAM: The Open Source CFD Toolbox           |
|  \\    /   O peration     | Version:  4.1                                   |
|   \\  /    A nd           | Web:      www.OpenFOAM.org                      |
|    \\/     M anipulation  |                                                 |
\*---------------------------------------------------------------------------*/
FoamFile
{
    version     2.0;
    format      ascii;
    class       volVectorField;
    location    "11.5";
    object      U;
}
// * * * * * * * * * * * * * * * * * * * * * * * * * * * * * * * * * * * * * //

dimensions      [0 1 -1 0 0 0 0];

internalField   nonuniform List<vector> 
400
(
(0.000201079 -0.000198221 0)
(-9.02279e-05 8.44975e-05 0)
(-0.00154485 0.000333399 0)
(-0.00375471 0.000516861 0)
(-0.00648305 0.000606362 0)
(-0.00938935 0.00063644 0)
(-0.0122471 0.000612008 0)
(-0.0148114 0.000537251 0)
(-0.016853 0.000405974 0)
(-0.0181344 0.000216418 0)
(-0.0184482 -2.46888e-05 0)
(-0.0176571 -0.000294911 0)
(-0.0157467 -0.000556181 0)
(-0.0128751 -0.000757374 0)
(-0.00937789 -0.000848983 0)
(-0.00576524 -0.000791365 0)
(-0.00258827 -0.000587007 0)
(-0.000403112 -0.000257966 0)
(0.000560268 7.37342e-05 0)
(0.000317235 0.000302317 0)
(-8.91966e-05 8.08649e-05 0)
(-0.00206681 0.00193928 0)
(-0.00650312 0.00366932 0)
(-0.0124889 0.00490739 0)
(-0.0195151 0.00553898 0)
(-0.0268438 0.00565543 0)
(-0.0339142 0.00529557 0)
(-0.0401335 0.00447908 0)
(-0.0449534 0.00320495 0)
(-0.0478478 0.00150478 0)
(-0.0483914 -0.000523422 0)
(-0.0463375 -0.00268822 0)
(-0.0417112 -0.00470802 0)
(-0.0348905 -0.00624256 0)
(-0.0266075 -0.00696861 0)
(-0.0179356 -0.00666126 0)
(-0.0100374 -0.00532465 0)
(-0.0040888 -0.00319253 0)
(-0.000616764 -0.000938426 0)
(0.000178998 0.00059277 0)
(-0.000421582 0.00167495 0)
(-0.00438519 0.00650643 0)
(-0.0118488 0.0105841 0)
(-0.0213121 0.0133816 0)
(-0.0320503 0.0147488 0)
(-0.043043 0.0148266 0)
(-0.0535024 0.0136925 0)
(-0.062599 0.0113945 0)
(-0.0695754 0.00797017 0)
(-0.0737263 0.00354213 0)
(-0.0744973 -0.00161454 0)
(-0.0715753 -0.00702747 0)
(-0.0649947 -0.0120389 0)
(-0.0552362 -0.015877 0)
(-0.0432383 -0.0178091 0)
(-0.0304112 -0.017326 0)
(-0.0183301 -0.0144055 0)
(-0.00868729 -0.00957464 0)
(-0.0023452 -0.00420717 0)
(-1.34827e-05 -4.26491e-06 0)
(-0.000748287 0.00445855 0)
(-0.00666474 0.01349 0)
(-0.0170317 0.0204952 0)
(-0.0296965 0.0250611 0)
(-0.043729 0.0271449 0)
(-0.0578866 0.0269808 0)
(-0.0712395 0.0247033 0)
(-0.0828131 0.0204007 0)
(-0.0917266 0.0141674 0)
(-0.0971607 0.00624049 0)
(-0.0984602 -0.00289921 0)
(-0.0952202 -0.0124643 0)
(-0.0873982 -0.0213735 0)
(-0.0754404 -0.0283515 0)
(-0.0603301 -0.032151 0)
(-0.0436819 -0.031852 0)
(-0.0274247 -0.0272901 0)
(-0.0138418 -0.0192334 0)
(-0.00427873 -0.00977661 0)
(-0.000209181 -0.00151492 0)
(-0.00102663 0.00840058 0)
(-0.00870315 0.022853 0)
(-0.0217161 0.033345 0)
(-0.0372746 0.0398485 0)
(-0.0542547 0.042598 0)
(-0.0712347 0.0419933 0)
(-0.0872057 0.0382602 0)
(-0.101118 0.0315391 0)
(-0.112029 0.0219852 0)
(-0.11904 0.00994546 0)
(-0.121391 -0.0039057 0)
(-0.118528 -0.0184769 0)
(-0.110223 -0.0322539 0)
(-0.0967368 -0.0434002 0)
(-0.0789381 -0.0500218 0)
(-0.0585304 -0.0505829 0)
(-0.0377819 -0.0445463 0)
(-0.0197238 -0.0327637 0)
(-0.00641452 -0.01805 0)
(-0.000389932 -0.00403293 0)
(-0.00126131 0.0133128 0)
(-0.0104384 0.0342483 0)
(-0.0257322 0.0487101 0)
(-0.0437917 0.0572862 0)
(-0.0633285 0.0606591 0)
(-0.0827897 0.059483 0)
(-0.101141 0.0541191 0)
(-0.117319 0.0447693 0)
(-0.13037 0.0316347 0)
(-0.139347 0.0151323 0)
(-0.143381 -0.00392969 0)
(-0.141718 -0.0242224 0)
(-0.133841 -0.0438413 0)
(-0.119671 -0.0603637 0)
(-0.0997686 -0.0711045 0)
(-0.0757506 -0.0736285 0)
(-0.050148 -0.0666431 0)
(-0.0268818 -0.0507665 0)
(-0.00902201 -0.0294707 0)
(-0.000606102 -0.00767442 0)
(-0.00144185 0.0190347 0)
(-0.0118007 0.0473513 0)
(-0.0289142 0.0662044 0)
(-0.0489815 0.0769874 0)
(-0.0705887 0.0809849 0)
(-0.0921027 0.0791955 0)
(-0.112512 0.0721648 0)
(-0.130797 0.0601645 0)
(-0.146045 0.0434152 0)
(-0.157304 0.022341 0)
(-0.163612 -0.00221095 0)
(-0.164007 -0.0287885 0)
(-0.157617 -0.0551973 0)
(-0.143884 -0.0784616 0)
(-0.122841 -0.0949909 0)
(-0.0957441 -0.101119 0)
(-0.065156 -0.094248 0)
(-0.0359109 -0.0741963 0)
(-0.0124228 -0.0448541 0)
(-0.000906952 -0.0127652 0)
(-0.001563 0.0253453 0)
(-0.0127346 0.0617152 0)
(-0.0311167 0.0852838 0)
(-0.0525802 0.0983856 0)
(-0.0756247 0.103039 0)
(-0.0985885 0.100674 0)
(-0.120528 0.0920752 0)
(-0.140522 0.0775942 0)
(-0.157758 0.0574441 0)
(-0.171345 0.0319839 0)
(-0.180295 0.00198334 0)
(-0.183481 -0.0311378 0)
(-0.179687 -0.0650673 0)
(-0.167799 -0.0964107 0)
(-0.147113 -0.120663 0)
(-0.118146 -0.132639 0)
(-0.0830522 -0.127737 0)
(-0.0473268 -0.104059 0)
(-0.0169796 -0.0652606 0)
(-0.00135942 -0.0198006 0)
(-0.00162197 0.0320175 0)
(-0.013207 0.07686 0)
(-0.0322352 0.105341 0)
(-0.0543666 0.120814 0)
(-0.0780452 0.126146 0)
(-0.10163 0.123276 0)
(-0.124285 0.113291 0)
(-0.145243 0.0966441 0)
(-0.163859 0.0735259 0)
(-0.179391 0.0441686 0)
(-0.190928 0.00915054 0)
(-0.197303 -0.0303172 0)
(-0.197058 -0.0720416 0)
(-0.188553 -0.112475 0)
(-0.170221 -0.146381 0)
(-0.141453 -0.166948 0)
(-0.103343 -0.166868 0)
(-0.0613668 -0.141201 0)
(-0.0230535 -0.0919688 0)
(-0.00204546 -0.0294966 0)
(-0.00162779 0.0388005 0)
(-0.0132474 0.0922451 0)
(-0.0322764 0.125663 0)
(-0.0542589 0.143444 0)
(-0.0776038 0.149405 0)
(-0.100745 0.146072 0)
(-0.122987 0.134902 0)
(-0.143777 0.116489 0)
(-0.162707 0.0910072 0)
(-0.179276 0.0585299 0)
(-0.192789 0.0193583 0)
(-0.202206 -0.0256705 0)
(-0.206029 -0.0747535 0)
(-0.202261 -0.124578 0)
(-0.188527 -0.169606 0)
(-0.162815 -0.201643 0)
(-0.124461 -0.210227 0)
(-0.0777441 -0.185806 0)
(-0.0309716 -0.126246 0)
(-0.00307868 -0.0427838 0)
(-0.00161786 0.045526 0)
(-0.012994 0.107412 0)
(-0.0314245 0.145558 0)
(-0.0524046 0.16538 0)
(-0.0743204 0.171763 0)
(-0.09575 0.167892 0)
(-0.116184 0.155678 0)
(-0.135339 0.135898 0)
(-0.153105 0.108748 0)
(-0.169315 0.0741429 0)
(-0.183611 0.0320709 0)
(-0.195265 -0.0171199 0)
(-0.20299 -0.0722628 0)
(-0.204733 -0.130724 0)
(-0.197586 -0.187311 0)
(-0.178159 -0.233167 0)
(-0.143534 -0.254819 0)
(-0.0953179 -0.236771 0)
(-0.0409254 -0.168992 0)
(-0.00461688 -0.0608182 0)
(-0.00166203 0.0520658 0)
(-0.0127603 0.121922 0)
(-0.0301522 0.164294 0)
(-0.0493168 0.185603 0)
(-0.068631 0.191978 0)
(-0.0869396 0.187325 0)
(-0.103977 0.174095 0)
(-0.119803 0.153295 0)
(-0.134652 0.125184 0)
(-0.14875 0.089557 0)
(-0.162162 0.0461051 0)
(-0.174614 -0.00534724 0)
(-0.185273 -0.0644206 0)
(-0.192384 -0.129545 0)
(-0.193001 -0.19661 0)
(-0.182739 -0.257236 0)
(-0.156476 -0.295975 0)
(-0.111776 -0.291046 0)
(-0.0527687 -0.220127 0)
(-0.00687082 -0.0849115 0)
(-0.00192215 0.0587444 0)
(-0.0130943 0.135841 0)
(-0.0292277 0.181495 0)
(-0.0458403 0.203251 0)
(-0.0613272 0.208825 0)
(-0.0750126 0.202887 0)
(-0.0869586 0.188498 0)
(-0.0976617 0.166911 0)
(-0.107726 0.138483 0)
(-0.117793 0.102932 0)
(-0.128377 0.0597083 0)
(-0.139722 0.00816327 0)
(-0.151615 -0.0521192 0)
(-0.16292 -0.120836 0)
(-0.171248 -0.195572 0)
(-0.171934 -0.269758 0)
(-0.158402 -0.327884 0)
(-0.123462 -0.343302 0)
(-0.0656506 -0.277839 0)
(-0.0100878 -0.116404 0)
(-0.00264904 0.0658315 0)
(-0.0149859 0.149064 0)
(-0.0299648 0.19652 0)
(-0.0433547 0.217146 0)
(-0.053635 0.220776 0)
(-0.0610209 0.212846 0)
(-0.0660278 0.197053 0)
(-0.0697161 0.174851 0)
(-0.0730694 0.146695 0)
(-0.0771345 0.11225 0)
(-0.0828378 0.0708004 0)
(-0.0909219 0.0213451 0)
(-0.10185 -0.0371888 0)
(-0.115303 -0.10571 0)
(-0.129987 -0.183779 0)
(-0.141812 -0.26778 0)
(-0.144182 -0.344579 0)
(-0.12544 -0.386107 0)
(-0.0775085 -0.33771 0)
(-0.0144722 -0.156171 0)
(-0.00439113 0.075605 0)
(-0.0197281 0.163302 0)
(-0.0336412 0.209903 0)
(-0.0428924 0.226642 0)
(-0.0461776 0.226478 0)
(-0.045254 0.215469 0)
(-0.041227 0.197858 0)
(-0.0358716 0.175139 0)
(-0.0305343 0.147778 0)
(-0.026628 0.115371 0)
(-0.025416 0.0770961 0)
(-0.028061 0.0317418 0)
(-0.0356569 -0.0221838 0)
(-0.0487302 -0.0865018 0)
(-0.0674349 -0.162587 0)
(-0.088985 -0.250327 0)
(-0.1086 -0.34127 0)
(-0.111538 -0.410976 0)
(-0.0843561 -0.392363 0)
(-0.0199764 -0.204205 0)
(-0.00800396 0.0882983 0)
(-0.029929 0.177657 0)
(-0.0422303 0.219624 0)
(-0.0453071 0.229053 0)
(-0.0383769 0.223088 0)
(-0.0260293 0.208074 0)
(-0.0100801 0.18848 0)
(0.00682677 0.165576 0)
(0.0230639 0.139682 0)
(0.0369398 0.110293 0)
(0.0469725 0.0765156 0)
(0.0517055 0.0370815 0)
(0.0495456 -0.00965056 0)
(0.0392452 -0.0659452 0)
(0.0191535 -0.134428 0)
(-0.00963352 -0.218161 0)
(-0.0459046 -0.314788 0)
(-0.0741217 -0.408957 0)
(-0.079544 -0.430503 0)
(-0.0257294 -0.257283 0)
(-0.0146193 0.114335 0)
(-0.0452074 0.197722 0)
(-0.0515748 0.226908 0)
(-0.0431879 0.222584 0)
(-0.020548 0.207642 0)
(0.00756804 0.187504 0)
(0.0388317 0.16595 0)
(0.0698022 0.143505 0)
(0.0987939 0.120043 0)
(0.124027 0.094857 0)
(0.143985 0.0669911 0)
(0.157099 0.035231 0)
(0.161493 -0.00199175 0)
(0.155424 -0.0469059 0)
(0.136026 -0.102646 0)
(0.1027 -0.174243 0)
(0.0520179 -0.265308 0)
(-0.00251185 -0.373575 0)
(-0.051688 -0.439176 0)
(-0.0284946 -0.309983 0)
(-0.0256198 0.141873 0)
(-0.0655873 0.209199 0)
(-0.0479521 0.216811 0)
(-0.0145123 0.195609 0)
(0.0342351 0.171943 0)
(0.0841479 0.148536 0)
(0.13388 0.127129 0)
(0.180063 0.10723 0)
(0.221642 0.0880955 0)
(0.257274 0.0688512 0)
(0.285796 0.0485449 0)
(0.305842 0.0261528 0)
(0.315601 0.000387969 0)
(0.313107 -0.0304862 0)
(0.294859 -0.0692999 0)
(0.258786 -0.121077 0)
(0.197113 -0.193244 0)
(0.118784 -0.296438 0)
(0.0178243 -0.395482 0)
(-0.0171673 -0.338993 0)
(-0.0187495 0.214575 0)
(-0.0197975 0.215329 0)
(0.056641 0.181586 0)
(0.128716 0.140402 0)
(0.205624 0.11054 0)
(0.273848 0.0882821 0)
(0.33546 0.0710249 0)
(0.389046 0.0570677 0)
(0.434953 0.0449972 0)
(0.472923 0.0338566 0)
(0.502567 0.0228289 0)
(0.523101 0.0112095 0)
(0.533229 -0.00183282 0)
(0.531207 -0.0172831 0)
(0.513879 -0.0371443 0)
(0.47827 -0.0648344 0)
(0.414669 -0.108589 0)
(0.323991 -0.186722 0)
(0.173202 -0.296558 0)
(0.0429825 -0.335041 0)
(0.211328 0.129533 0)
(0.297268 0.100931 0)
(0.451166 0.0674645 0)
(0.543291 0.0443184 0)
(0.618083 0.0290906 0)
(0.674003 0.0198539 0)
(0.717951 0.0138501 0)
(0.75256 0.0098032 0)
(0.779803 0.0068252 0)
(0.80068 0.00442318 0)
(0.815628 0.00226772 0)
(0.824599 0.000139555 0)
(0.827104 -0.0021836 0)
(0.822145 -0.00489062 0)
(0.807852 -0.00852819 0)
(0.781248 -0.0136942 0)
(0.734305 -0.0228999 0)
(0.658599 -0.0407266 0)
(0.498164 -0.0743663 0)
(0.288347 -0.136213 0)
)
;

boundaryField
{
    movingWall
    {
        type            fixedValue;
        value           uniform (1 0 0);
    }
    fixedWalls
    {
        type            noSlip;
    }
    frontAndBack
    {
        type            empty;
    }
}


// ************************************************************************* //
