/*--------------------------------*- C++ -*----------------------------------*\
| =========                 |                                                 |
| \\      /  F ield         | OpenFOAM: The Open Source CFD Toolbox           |
|  \\    /   O peration     | Version:  4.1                                   |
|   \\  /    A nd           | Web:      www.OpenFOAM.org                      |
|    \\/     M anipulation  |                                                 |
\*---------------------------------------------------------------------------*/
FoamFile
{
    version     2.0;
    format      ascii;
    class       volVectorField;
    location    "8.5";
    object      U;
}
// * * * * * * * * * * * * * * * * * * * * * * * * * * * * * * * * * * * * * //

dimensions      [0 1 -1 0 0 0 0];

internalField   nonuniform List<vector> 
400
(
(0.000196457 -0.000193601 0)
(-9.58223e-05 8.54973e-05 0)
(-0.00153454 0.000330718 0)
(-0.00371669 0.000511305 0)
(-0.00640934 0.000599293 0)
(-0.00927734 0.000628708 0)
(-0.012098 0.000604444 0)
(-0.0146303 0.000530695 0)
(-0.0166489 0.000401388 0)
(-0.0179199 0.000214719 0)
(-0.0182382 -2.28499e-05 0)
(-0.0174672 -0.000289426 0)
(-0.0155907 -0.000547669 0)
(-0.0127624 -0.00074722 0)
(-0.00931109 -0.000839118 0)
(-0.00573956 -0.000783848 0)
(-0.00259207 -0.000583366 0)
(-0.000420464 -0.000258756 0)
(0.000544887 6.97223e-05 0)
(0.000312684 0.000297815 0)
(-8.96222e-05 8.65337e-05 0)
(-0.00204337 0.00192027 0)
(-0.0064185 0.00362427 0)
(-0.0123195 0.00484329 0)
(-0.0192463 0.00546551 0)
(-0.0264736 0.005581 0)
(-0.0334506 0.00522808 0)
(-0.0395942 0.00442611 0)
(-0.0443647 0.00317361 0)
(-0.0472425 0.00150069 0)
(-0.0478056 -0.000497543 0)
(-0.0458068 -0.00263379 0)
(-0.0412654 -0.00463126 0)
(-0.0345493 -0.0061542 0)
(-0.0263771 -0.00688229 0)
(-0.0178069 -0.00659086 0)
(-0.0099878 -0.00528066 0)
(-0.0040863 -0.00317876 0)
(-0.000629325 -0.000948179 0)
(0.000174421 0.000577328 0)
(-0.000415802 0.00165981 0)
(-0.00431986 0.00642229 0)
(-0.0116699 0.0104384 0)
(-0.0209914 0.0131948 0)
(-0.0315731 0.0145452 0)
(-0.0424131 0.0146283 0)
(-0.0527376 0.0135199 0)
(-0.0617303 0.0112662 0)
(-0.0686441 0.00790237 0)
(-0.0727805 0.00354573 0)
(-0.0735873 -0.00153609 0)
(-0.0707483 -0.00688024 0)
(-0.0642894 -0.0118391 0)
(-0.0546786 -0.0156499 0)
(-0.042838 -0.0175856 0)
(-0.0301595 -0.0171373 0)
(-0.0182014 -0.0142758 0)
(-0.00864235 -0.00951402 0)
(-0.00234239 -0.00420428 0)
(-1.6361e-05 -2.48993e-05 0)
(-0.000735951 0.00439959 0)
(-0.00655661 0.0132967 0)
(-0.0167602 0.0201976 0)
(-0.0292328 0.0247014 0)
(-0.0430629 0.0267667 0)
(-0.0570305 0.0266232 0)
(-0.0702219 0.0244017 0)
(-0.0816767 0.0201859 0)
(-0.0905237 0.0140638 0)
(-0.0959487 0.0062629 0)
(-0.0972962 -0.00274873 0)
(-0.0941561 -0.0121984 0)
(-0.0864768 -0.0210197 0)
(-0.0746917 -0.0279504 0)
(-0.0597688 -0.0317518 0)
(-0.0433041 -0.031505 0)
(-0.0272077 -0.0270361 0)
(-0.0137454 -0.0190928 0)
(-0.00425557 -0.00973754 0)
(-0.000209667 -0.00153093 0)
(-0.001009 0.00827631 0)
(-0.00856039 0.0225101 0)
(-0.0213709 0.0328503 0)
(-0.0367 0.0392741 0)
(-0.053447 0.042011 0)
(-0.0702154 0.0414523 0)
(-0.0860128 0.037816 0)
(-0.099803 0.0312336 0)
(-0.110649 0.0218493 0)
(-0.117657 0.00999514 0)
(-0.120061 -0.00367163 0)
(-0.117302 -0.0180784 0)
(-0.109144 -0.031729 0)
(-0.0958376 -0.0428032 0)
(-0.0782391 -0.0494185 0)
(-0.0580362 -0.0500431 0)
(-0.0374786 -0.0441305 0)
(-0.0195748 -0.0325079 0)
(-0.00637024 -0.0179486 0)
(-0.000388042 -0.0040334 0)
(-0.00124036 0.0131083 0)
(-0.0102749 0.0337289 0)
(-0.0253443 0.0479902 0)
(-0.043156 0.0564738 0)
(-0.0624479 0.0598478 0)
(-0.0816936 0.0587515 0)
(-0.0998743 0.053532 0)
(-0.115937 0.0443771 0)
(-0.128931 0.0314713 0)
(-0.13791 0.0152121 0)
(-0.141994 -0.00361264 0)
(-0.140428 -0.0236947 0)
(-0.132686 -0.0431488 0)
(-0.118682 -0.0595698 0)
(-0.0989725 -0.0702875 0)
(-0.0751628 -0.0728752 0)
(-0.0497678 -0.066036 0)
(-0.0266827 -0.0503635 0)
(-0.00895666 -0.0292813 0)
(-0.000601732 -0.00764848 0)
(-0.00142025 0.0187434 0)
(-0.0116343 0.0466447 0)
(-0.0285228 0.0652503 0)
(-0.0483459 0.0759332 0)
(-0.0697175 0.079952 0)
(-0.0910308 0.0782815 0)
(-0.111288 0.0714461 0)
(-0.129477 0.0596963 0)
(-0.144681 0.0432303 0)
(-0.155946 0.0224493 0)
(-0.162301 -0.00182171 0)
(-0.162774 -0.0281504 0)
(-0.156491 -0.0543601 0)
(-0.142893 -0.0774919 0)
(-0.122012 -0.0939723 0)
(-0.0951029 -0.100151 0)
(-0.064719 -0.0934323 0)
(-0.0356684 -0.0736201 0)
(-0.0123372 -0.044553 0)
(-0.000899917 -0.0127019 0)
(-0.00154366 0.024971 0)
(-0.0125848 0.0608307 0)
(-0.0307641 0.0841093 0)
(-0.0520101 0.097108 0)
(-0.0748497 0.101807 0)
(-0.0976462 0.0996026 0)
(-0.119467 0.0912483 0)
(-0.139393 0.0770682 0)
(-0.156608 0.0572468 0)
(-0.170211 0.0321172 0)
(-0.179201 0.00242688 0)
(-0.182444 -0.0304208 0)
(-0.17872 -0.064127 0)
(-0.166918 -0.0953102 0)
(-0.14634 -0.119483 0)
(-0.117514 -0.131479 0)
(-0.082593 -0.126717 0)
(-0.0470546 -0.103296 0)
(-0.0168761 -0.0648287 0)
(-0.00134947 -0.0196896 0)
(-0.0016077 0.0315739 0)
(-0.0130926 0.0758262 0)
(-0.0319622 0.103982 0)
(-0.0539243 0.119353 0)
(-0.0774482 0.124755 0)
(-0.100915 0.122086 0)
(-0.123497 0.112391 0)
(-0.144426 0.0960866 0)
(-0.16305 0.07333 0)
(-0.178611 0.0443249 0)
(-0.190186 0.00962887 0)
(-0.196596 -0.029559 0)
(-0.196382 -0.0710522 0)
(-0.187906 -0.111309 0)
(-0.169614 -0.145106 0)
(-0.140913 -0.165653 0)
(-0.102915 -0.165677 0)
(-0.0610887 -0.140258 0)
(-0.0229376 -0.0913961 0)
(-0.00203252 -0.0293286 0)
(-0.00162084 0.0383109 0)
(-0.013184 0.0911083 0)
(-0.0321169 0.124175 0)
(-0.0539961 0.141856 0)
(-0.0772515 0.14791 0)
(-0.100335 0.144813 0)
(-0.122557 0.133971 0)
(-0.143362 0.115932 0)
(-0.162329 0.0908308 0)
(-0.178944 0.0587111 0)
(-0.192496 0.0198549 0)
(-0.201933 -0.0249075 0)
(-0.205752 -0.0737718 0)
(-0.201959 -0.123422 0)
(-0.18819 -0.168322 0)
(-0.16246 -0.2003 0)
(-0.12413 -0.208933 0)
(-0.077496 -0.184718 0)
(-0.0308532 -0.125538 0)
(-0.00306306 -0.0425532 0)
(-0.00161962 0.0450204 0)
(-0.012992 0.106232 0)
(-0.0314016 0.144011 0)
(-0.0523562 0.163736 0)
(-0.0742563 0.17023 0)
(-0.095693 0.166621 0)
(-0.11616 0.154761 0)
(-0.13537 0.135374 0)
(-0.1532 0.108609 0)
(-0.169469 0.074353 0)
(-0.183804 0.0325743 0)
(-0.195465 -0.0163805 0)
(-0.20316 -0.0713359 0)
(-0.204834 -0.129645 0)
(-0.197593 -0.186108 0)
(-0.178065 -0.231876 0)
(-0.143369 -0.253518 0)
(-0.0951441 -0.235607 0)
(-0.0408198 -0.168176 0)
(-0.00459955 -0.0605251 0)
(-0.0016729 0.0515778 0)
(-0.0128238 0.120766 0)
(-0.030276 0.162768 0)
(-0.0494973 0.183979 0)
(-0.0688711 0.190474 0)
(-0.0872482 0.186098 0)
(-0.104364 0.173233 0)
(-0.120275 0.152829 0)
(-0.135203 0.125097 0)
(-0.149361 0.0897975 0)
(-0.162806 0.0466068 0)
(-0.175253 -0.00464973 0)
(-0.185862 -0.063579 0)
(-0.192879 -0.12859 0)
(-0.193361 -0.195555 0)
(-0.182941 -0.256089 0)
(-0.156523 -0.294772 0)
(-0.111719 -0.289898 0)
(-0.0526956 -0.219254 0)
(-0.00685365 -0.0845653 0)
(-0.00194159 0.0583078 0)
(-0.013221 0.134778 0)
(-0.029494 0.180069 0)
(-0.0462429 0.201725 0)
(-0.0618589 0.207415 0)
(-0.0756652 0.20175 0)
(-0.0877231 0.187721 0)
(-0.0985243 0.166518 0)
(-0.108666 0.138449 0)
(-0.118782 0.103196 0)
(-0.129382 0.0601978 0)
(-0.140705 0.00880692 0)
(-0.152533 -0.0513766 0)
(-0.16373 -0.120025 0)
(-0.171907 -0.1947 0)
(-0.172407 -0.268813 0)
(-0.15867 -0.326865 0)
(-0.123549 -0.342268 0)
(-0.0656306 -0.276982 0)
(-0.0100737 -0.116025 0)
(-0.00267565 0.0654767 0)
(-0.0151669 0.148156 0)
(-0.0303551 0.195269 0)
(-0.0439505 0.215786 0)
(-0.0544185 0.219515 0)
(-0.0619648 0.211835 0)
(-0.0671021 0.196376 0)
(-0.0708874 0.174529 0)
(-0.074302 0.1467 0)
(-0.0783917 0.11252 0)
(-0.0840833 0.0712606 0)
(-0.092121 0.0219235 0)
(-0.102969 -0.036549 0)
(-0.116307 -0.105043 0)
(-0.130842 -0.183091 0)
(-0.14248 -0.267054 0)
(-0.144631 -0.34379 0)
(-0.125667 -0.385265 0)
(-0.0775555 -0.336947 0)
(-0.0144647 -0.155792 0)
(-0.00442262 0.0753561 0)
(-0.0199469 0.1626 0)
(-0.0341204 0.208887 0)
(-0.0436281 0.225505 0)
(-0.0471429 0.225408 0)
(-0.046405 0.214608 0)
(-0.0425149 0.197287 0)
(-0.0372453 0.174877 0)
(-0.0319451 0.147798 0)
(-0.0280323 0.11562 0)
(-0.0267772 0.0775031 0)
(-0.0293495 0.0322402 0)
(-0.0368486 -0.0216492 0)
(-0.0498035 -0.0859666 0)
(-0.068366 -0.162063 0)
(-0.0897461 -0.249802 0)
(-0.109157 -0.340712 0)
(-0.111869 -0.410363 0)
(-0.08447 -0.391758 0)
(-0.0199793 -0.203864 0)
(-0.00803591 0.0881665 0)
(-0.0301572 0.177189 0)
(-0.0427391 0.21888 0)
(-0.0460948 0.228175 0)
(-0.0394142 0.222237 0)
(-0.0272636 0.207376 0)
(-0.011451 0.18801 0)
(0.00538158 0.165355 0)
(0.0216019 0.139694 0)
(0.0355093 0.110491 0)
(0.0456106 0.0768441 0)
(0.0504377 0.0374828 0)
(0.0483886 -0.00922559 0)
(0.0382103 -0.0655319 0)
(0.018252 -0.134044 0)
(-0.0103862 -0.217802 0)
(-0.0464831 -0.31443 0)
(-0.0744998 -0.408565 0)
(-0.0797065 -0.430087 0)
(-0.0257441 -0.257017 0)
(-0.0146438 0.114314 0)
(-0.0453982 0.197485 0)
(-0.0520193 0.226442 0)
(-0.0438935 0.221978 0)
(-0.021497 0.207023 0)
(0.00642236 0.186976 0)
(0.0375482 0.16558 0)
(0.0684451 0.143317 0)
(0.0974239 0.120029 0)
(0.122695 0.0949875 0)
(0.14273 0.0672242 0)
(0.155945 0.0355226 0)
(0.160455 -0.00168153 0)
(0.154509 -0.0466083 0)
(0.135236 -0.102381 0)
(0.10204 -0.174015 0)
(0.0514986 -0.265104 0)
(-0.00287021 -0.373365 0)
(-0.0518651 -0.438942 0)
(-0.0285191 -0.309814 0)
(-0.0256259 0.141923 0)
(-0.0656829 0.209135 0)
(-0.048219 0.216576 0)
(-0.0149805 0.195252 0)
(0.0335554 0.171549 0)
(0.0832807 0.148183 0)
(0.13287 0.126867 0)
(0.178965 0.107083 0)
(0.220515 0.0880634 0)
(0.256168 0.0689176 0)
(0.284753 0.0486839 0)
(0.304891 0.0263347 0)
(0.31476 0.000584769 0)
(0.312381 -0.0302982 0)
(0.294246 -0.0691375 0)
(0.258284 -0.120949 0)
(0.19672 -0.193147 0)
(0.118506 -0.296355 0)
(0.017673 -0.395388 0)
(-0.0171946 -0.338917 0)
(-0.0187356 0.214635 0)
(-0.0197808 0.215351 0)
(0.0565932 0.181516 0)
(0.128549 0.140255 0)
(0.2053 0.11036 0)
(0.273365 0.0881107 0)
(0.33484 0.0708921 0)
(0.388332 0.0569888 0)
(0.434192 0.0449751 0)
(0.472163 0.0338846 0)
(0.501848 0.0228942 0)
(0.522454 0.0112969 0)
(0.532671 -0.00173857 0)
(0.530745 -0.0171951 0)
(0.513509 -0.0370721 0)
(0.477984 -0.0647841 0)
(0.414454 -0.108561 0)
(0.323841 -0.18671 0)
(0.173115 -0.296547 0)
(0.0429633 -0.335029 0)
(0.211344 0.129557 0)
(0.297318 0.10095 0)
(0.451218 0.0674628 0)
(0.543302 0.044299 0)
(0.618019 0.029063 0)
(0.673854 0.0198269 0)
(0.717725 0.0138301 0)
(0.752279 0.00979348 0)
(0.779496 0.00682604 0)
(0.800375 0.00443284 0)
(0.81535 0.00228324 0)
(0.824365 0.000157613 0)
(0.826921 -0.00216613 0)
(0.822015 -0.00487618 0)
(0.807769 -0.00851843 0)
(0.781201 -0.0136897 0)
(0.734281 -0.0229004 0)
(0.658588 -0.0407306 0)
(0.498157 -0.074371 0)
(0.288346 -0.136217 0)
)
;

boundaryField
{
    movingWall
    {
        type            fixedValue;
        value           uniform (1 0 0);
    }
    fixedWalls
    {
        type            noSlip;
    }
    frontAndBack
    {
        type            empty;
    }
}


// ************************************************************************* //
