/*--------------------------------*- C++ -*----------------------------------*\
| =========                 |                                                 |
| \\      /  F ield         | OpenFOAM: The Open Source CFD Toolbox           |
|  \\    /   O peration     | Version:  4.1                                   |
|   \\  /    A nd           | Web:      www.OpenFOAM.org                      |
|    \\/     M anipulation  |                                                 |
\*---------------------------------------------------------------------------*/
FoamFile
{
    version     2.0;
    format      ascii;
    class       volScalarField;
    location    "0.003";
    object      p;
}
// * * * * * * * * * * * * * * * * * * * * * * * * * * * * * * * * * * * * * //

dimensions      [1 -1 -2 0 0 0 0];

internalField   nonuniform List<scalar> 
441
(
100000
99999.9
99999.7
100000
100000
99999.6
100000
100000
100000
100001
100001
100001
100001
100001
100001
100001
100001
100001
100001
100001
100001
100000
100000
100000
100000
100000
100000
100000
100000
100000
100000
100000
100000
100000
100000
100000
100001
100000
100001
100000
100001
100000
100000
99999.9
100000
99999.9
100000
99999.9
100000
100000
100000
100001
100001
100001
100001
100001
100001
100001
100001
100001
100001
100001
100001
100000
99999.9
100000
100000
100000
100000
100000
100000
100000
100000
100000
100000
100001
100001
100001
100001
100001
100001
100001
100001
100001
100000
99999.5
99999.7
99999.6
99999.7
99999.8
99999.9
100000
100000
100000
100000
100001
100001
100001
100001
100001
100001
100001
100001
100001
100001
99998.7
99999.4
99999.2
99999.5
99999.5
99999.7
99999.8
99999.9
100000
100000
100000
100001
100001
100001
100001
100001
100001
100001
100001
100001
100001
99998.3
99998.7
99998.8
99998.9
99999.1
99999.3
99999.5
99999.7
99999.9
100000
100000
100001
100001
100001
100001
100001
100001
100002
100001
100002
100001
99998.3
99998.4
99998.4
99998.6
99998.7
99999
99999.2
99999.5
99999.8
100000
100000
100001
100001
100001
100001
100002
100002
100002
100002
100002
100002
99997.5
99997.5
99997.6
99997.9
99998
99998.4
99998.7
99999.1
99999.5
100000
100000
100001
100001
100002
100002
100002
100002
100003
100003
100003
100002
99997
99997
99997.1
99997.3
99997.5
99997.9
99998.3
99998.8
99999.3
99999.8
100000
100001
100001
100002
100002
100003
100003
100003
100003
100004
100003
99995.7
99995.7
99995.9
99996.2
99996.5
99997.1
99997.5
99998.2
99998.9
99999.6
100000
100001
100002
100003
100003
100004
100004
100005
100005
100005
100005
99995
99995
99995.1
99995.5
99995.8
99996.4
99997
99997.8
99998.5
99999.4
100000
100001
100002
100003
100004
100004
100005
100005
100005
100006
100005
99993
99993.1
99993.3
99993.9
99994.3
99995.2
99995.9
99997
99997.9
99999.1
100000
100001
100003
100004
100005
100006
100006
100007
100007
100008
100005
99992.1
99992.3
99992.3
99993.1
99993.4
99994.4
99995.2
99996.4
99997.5
99998.8
100000
100001
100003
100004
100005
100006
100007
100008
100008
100009
100008
99989
99989.4
99989.4
99990.7
99991.2
99992.7
99993.7
99995.3
99996.7
99998.3
100000
100002
100004
100005
100007
100008
100010
100010
100012
100011
100009
99988.1
99988.6
99988.4
99989.8
99990.1
99991.9
99992.8
99994.7
99996.1
99997.9
99999.8
100001
100004
100005
100007
100008
100011
100011
100013
100012
100010
99982.4
99984.1
99983.7
99986.4
99987
99989.7
99991
99993.5
99995.3
99997.4
99999.6
100002
100004
100006
100009
100010
100015
100015
100022
100017
100032
99981.9
99983.5
99982.7
99985.5
99986
99988.9
99990.2
99992.8
99994.7
99997
99999.3
100001
100004
100006
100009
100010
100015
100015
100022
100021
100030
99968.9
99976.2
99975
99981.2
99982.2
99986.6
99988.5
99991.8
99994
99996.6
99999.1
100001
100004
100006
100011
100012
100019
100019
100030
100030
100044
99968.6
99976.6
99974.7
99980.5
99981.5
99986
99988
99991.4
99993.7
99996.2
99998.8
100001
100004
100005
100010
100011
100017
100017
100028
100029
100046
99925.2
99967.4
99966.4
99978.5
99979.6
99985.4
99987.5
99991.2
99993.5
99996.2
99998.9
100001
100004
100006
100010
100012
100020
100022
100041
100047
100100
)
;

boundaryField
{
    movingWall
    {
        type            zeroGradient;
    }
    fixedWalls
    {
        type            zeroGradient;
    }
    frontAndBack
    {
        type            empty;
    }
}


// ************************************************************************* //
