/*--------------------------------*- C++ -*----------------------------------*\
| =========                 |                                                 |
| \\      /  F ield         | OpenFOAM: The Open Source CFD Toolbox           |
|  \\    /   O peration     | Version:  4.1                                   |
|   \\  /    A nd           | Web:      www.OpenFOAM.org                      |
|    \\/     M anipulation  |                                                 |
\*---------------------------------------------------------------------------*/
FoamFile
{
    version     2.0;
    format      ascii;
    class       volScalarField;
    location    "0.0019";
    object      p;
}
// * * * * * * * * * * * * * * * * * * * * * * * * * * * * * * * * * * * * * //

dimensions      [1 -1 -2 0 0 0 0];

internalField   nonuniform List<scalar> 
441
(
100000
99999.9
99999.7
100000
100000
99999.5
100000
100000
100000
100001
100001
100001
100001
100001
100000
100000
100000
100001
100000
100001
100000
100000
100000
100000
100000
100000
100000
100000
100000
100000
100000
100001
100000
100000
100000
100000
100000
100000
100001
100000
100001
100000
100000
99999.9
99999.9
99999.9
100000
99999.9
100000
100000
100000
100001
100001
100001
100001
100001
100001
100001
100001
100001
100001
100001
100001
100000
99999.9
99999.9
99999.9
99999.9
100000
100000
100000
100000
100000
100000
100000
100001
100001
100001
100001
100001
100001
100001
100001
100001
100000
99999.4
99999.6
99999.5
99999.6
99999.7
99999.8
100000
100000
100000
100000
100001
100001
100001
100001
100001
100001
100001
100001
100001
100001
99998.3
99999.2
99998.9
99999.2
99999.3
99999.5
99999.6
99999.8
100000
100000
100000
100001
100001
100001
100001
100001
100001
100001
100001
100002
100001
99997.8
99998.3
99998.3
99998.6
99998.7
99999
99999.2
99999.5
99999.8
100000
100000
100001
100001
100001
100001
100002
100002
100002
100002
100002
100001
99997.7
99997.8
99997.8
99998.1
99998.2
99998.6
99998.8
99999.2
99999.6
100000
100000
100001
100001
100002
100002
100002
100002
100003
100002
100003
100002
99996.7
99996.8
99996.9
99997.2
99997.4
99997.9
99998.2
99998.8
99999.3
99999.9
100000
100001
100002
100002
100002
100003
100003
100004
100003
100004
100003
99995.9
99996
99996.1
99996.4
99996.7
99997.2
99997.7
99998.4
99999
99999.7
100000
100001
100002
100003
100003
100004
100004
100004
100004
100005
100004
99994.4
99994.5
99994.7
99995.1
99995.5
99996.2
99996.8
99997.7
99998.5
99999.5
100000
100001
100002
100003
100004
100005
100005
100006
100006
100006
100007
99993.3
99993.5
99993.6
99994.1
99994.5
99995.4
99996.1
99997.1
99998.1
99999.3
100000
100002
100003
100004
100005
100006
100006
100007
100007
100007
100007
99991
99991.2
99991.4
99992.2
99992.8
99993.9
99994.9
99996.2
99997.5
99999
100000
100002
100003
100005
100006
100007
100008
100009
100009
100010
100007
99989.7
99989.9
99990.1
99991
99991.6
99992.9
99994
99995.6
99997
99998.7
100000
100002
100004
100005
100007
100008
100010
100010
100011
100011
100010
99986
99986.6
99986.7
99988.3
99989
99991
99992.3
99994.4
99996.2
99998.3
100000
100002
100005
100006
100009
100010
100013
100013
100015
100014
100013
99984.5
99985.2
99985.2
99986.9
99987.7
99989.9
99991.4
99993.7
99995.7
99998
100000
100002
100005
100007
100010
100011
100014
100015
100017
100016
100015
99977.9
99979.8
99979.9
99983.1
99984.2
99987.5
99989.5
99992.5
99994.8
99997.6
100000
100003
100006
100008
100012
100014
100019
100019
100026
100021
100036
99976.6
99978.6
99978.3
99981.8
99983
99986.6
99988.6
99991.9
99994.4
99997.3
100000
100003
100006
100008
100012
100014
100019
100020
100026
100025
100033
99962.3
99970
99969.8
99977
99978.9
99984.3
99986.8
99990.9
99993.7
99996.9
100000
100003
100006
100009
100014
100016
100023
100025
100036
100035
100048
99961
99969.2
99968.8
99976
99978.1
99983.7
99986.4
99990.6
99993.5
99996.7
99999.9
100003
100006
100009
100013
100015
100022
100023
100034
100035
100050
99915.9
99957.9
99959
99973
99975.7
99982.7
99985.7
99990.3
99993.3
99996.7
99999.9
100003
100006
100009
100014
100016
100025
100028
100047
100052
100102
)
;

boundaryField
{
    movingWall
    {
        type            zeroGradient;
    }
    fixedWalls
    {
        type            zeroGradient;
    }
    frontAndBack
    {
        type            empty;
    }
}


// ************************************************************************* //
