/*--------------------------------*- C++ -*----------------------------------*\
| =========                 |                                                 |
| \\      /  F ield         | OpenFOAM: The Open Source CFD Toolbox           |
|  \\    /   O peration     | Version:  4.1                                   |
|   \\  /    A nd           | Web:      www.OpenFOAM.org                      |
|    \\/     M anipulation  |                                                 |
\*---------------------------------------------------------------------------*/
FoamFile
{
    version     2.0;
    format      ascii;
    class       volVectorField;
    location    "3";
    object      U;
}
// * * * * * * * * * * * * * * * * * * * * * * * * * * * * * * * * * * * * * //

dimensions      [0 1 -1 0 0 0 0];

internalField   nonuniform List<vector> 
400
(
(0.000116102 -0.000113464 0)
(-0.000207411 0.000107267 0)
(-0.00139442 0.000289334 0)
(-0.00310639 0.000416031 0)
(-0.00515905 0.000470272 0)
(-0.00729859 0.000479115 0)
(-0.00936537 0.000449202 0)
(-0.0111984 0.000387157 0)
(-0.0126584 0.000291406 0)
(-0.0136033 0.00016132 0)
(-0.0139046 -7.57572e-07 0)
(-0.0134661 -0.000184189 0)
(-0.0122547 -0.000368824 0)
(-0.0103384 -0.00052404 0)
(-0.00789846 -0.000616495 0)
(-0.00525142 -0.00061247 0)
(-0.00276847 -0.000502412 0)
(-0.000886913 -0.00028333 0)
(0.000156893 -3.04312e-05 0)
(0.000202347 0.000189792 0)
(-0.000103622 0.000199708 0)
(-0.00168664 0.00162946 0)
(-0.00504829 0.00287463 0)
(-0.00947678 0.00371788 0)
(-0.0145863 0.00410313 0)
(-0.0198434 0.00411483 0)
(-0.0248666 0.00380312 0)
(-0.0292742 0.0032033 0)
(-0.0327311 0.00232653 0)
(-0.0349141 0.00118989 0)
(-0.0355464 -0.000162045 0)
(-0.0344373 -0.00163342 0)
(-0.0315409 -0.00306822 0)
(-0.0270259 -0.00425601 0)
(-0.0212976 -0.00496981 0)
(-0.0150313 -0.00501088 0)
(-0.00901848 -0.00430571 0)
(-0.00417057 -0.00291622 0)
(-0.000999273 -0.00123429 0)
(5.36228e-05 0.000185121 0)
(-0.000327584 0.00144803 0)
(-0.00325631 0.00505758 0)
(-0.00867237 0.00795896 0)
(-0.0154651 0.00985848 0)
(-0.0231029 0.0106999 0)
(-0.0308647 0.0106288 0)
(-0.0382267 0.00975072 0)
(-0.0446604 0.0081416 0)
(-0.0496983 0.00584278 0)
(-0.0528934 0.00291465 0)
(-0.0538641 -0.000515322 0)
(-0.0523446 -0.00420565 0)
(-0.04826 -0.00778199 0)
(-0.0418184 -0.010754 0)
(-0.0335467 -0.0125944 0)
(-0.0243485 -0.0128502 0)
(-0.0153085 -0.0113385 0)
(-0.00772319 -0.00821634 0)
(-0.00236803 -0.0042709 0)
(-0.000103707 -0.000591797 0)
(-0.000533817 0.00346638 0)
(-0.00472743 0.0100711 0)
(-0.0120571 0.0150278 0)
(-0.0209856 0.018142 0)
(-0.0308501 0.0194496 0)
(-0.0407855 0.0191899 0)
(-0.0501818 0.0175374 0)
(-0.0584185 0.0146125 0)
(-0.0649413 0.0104888 0)
(-0.0692085 0.00527321 0)
(-0.0707394 -0.000815228 0)
(-0.0691688 -0.0073699 0)
(-0.064337 -0.013761 0)
(-0.0564097 -0.0191575 0)
(-0.0459437 -0.0226461 0)
(-0.0340006 -0.0234202 0)
(-0.0219332 -0.0210999 0)
(-0.0114803 -0.015894 0)
(-0.00377323 -0.00899463 0)
(-0.000242672 -0.00204127 0)
(-0.000706048 0.00622358 0)
(-0.00604857 0.0166429 0)
(-0.0151598 0.0240583 0)
(-0.026079 0.0285388 0)
(-0.0380195 0.0303204 0)
(-0.0499979 0.0297863 0)
(-0.0613564 0.0272006 0)
(-0.0714216 0.022729 0)
(-0.0795817 0.016467 0)
(-0.0852103 0.00855099 0)
(-0.0877105 -0.000724559 0)
(-0.0865682 -0.0107944 0)
(-0.0814578 -0.0207552 0)
(-0.0724008 -0.0293768 0)
(-0.059884 -0.0352486 0)
(-0.0450705 -0.0370539 0)
(-0.0295994 -0.0340505 0)
(-0.0157913 -0.0263893 0)
(-0.00530699 -0.0156764 0)
(-0.000361361 -0.0042055 0)
(-0.000861625 0.0096184 0)
(-0.00726369 0.024607 0)
(-0.0180463 0.0348625 0)
(-0.0308495 0.0408588 0)
(-0.044778 0.0431434 0)
(-0.0587565 0.0423049 0)
(-0.0721123 0.0387233 0)
(-0.0841532 0.0326046 0)
(-0.0942345 0.0240404 0)
(-0.101651 0.013155 0)
(-0.105668 0.000269063 0)
(-0.105569 -0.0139352 0)
(-0.10077 -0.028293 0)
(-0.0910281 -0.0411293 0)
(-0.0766284 -0.0504031 0)
(-0.0587379 -0.0540632 0)
(-0.0392735 -0.0507273 0)
(-0.0213008 -0.0402728 0)
(-0.00726157 -0.0247014 0)
(-0.000507764 -0.00717316 0)
(-0.00100544 0.0136169 0)
(-0.00840101 0.0338985 0)
(-0.0207622 0.047373 0)
(-0.0353557 0.0550517 0)
(-0.0511954 0.057907 0)
(-0.0671431 0.0567994 0)
(-0.0825435 0.0522539 0)
(-0.0967202 0.0445081 0)
(-0.109023 0.0336114 0)
(-0.118683 0.0196127 0)
(-0.124819 0.0027814 0)
(-0.126474 -0.0161611 0)
(-0.122728 -0.0358384 0)
(-0.112945 -0.0541132 0)
(-0.0970406 -0.0681788 0)
(-0.0760061 -0.074963 0)
(-0.0519306 -0.072022 0)
(-0.0287419 -0.0585656 0)
(-0.0099843 -0.0368657 0)
(-0.000728802 -0.0112437 0)
(-0.00114341 0.0181776 0)
(-0.00948043 0.0444298 0)
(-0.0233256 0.0614799 0)
(-0.0395896 0.0710049 0)
(-0.0572094 0.0745225 0)
(-0.075014 0.0732369 0)
(-0.0923984 0.0678512 0)
(-0.10874 0.0586238 0)
(-0.123421 0.0455174 0)
(-0.135641 0.0284281 0)
(-0.144401 0.00747266 0)
(-0.148504 -0.0167023 0)
(-0.146665 -0.0426102 0)
(-0.137758 -0.067698 0)
(-0.121134 -0.0883082 0)
(-0.0973308 -0.100048 0)
(-0.068326 -0.098839 0)
(-0.0388526 -0.0825465 0)
(-0.0138834 -0.0533026 0)
(-0.00108879 -0.0169003 0)
(-0.00127967 0.0232819 0)
(-0.0105112 0.0561348 0)
(-0.0257234 0.0770726 0)
(-0.0434718 0.0885695 0)
(-0.0626208 0.0928255 0)
(-0.0819947 0.0914665 0)
(-0.101069 0.0854151 0)
(-0.119317 0.074944 0)
(-0.136199 0.0598883 0)
(-0.150948 0.0399155 0)
(-0.162516 0.0148819 0)
(-0.169545 -0.0147791 0)
(-0.170439 -0.0476303 0)
(-0.163559 -0.0808498 0)
(-0.147543 -0.109974 0)
(-0.122115 -0.129085 0)
(-0.0886299 -0.131808 0)
(-0.0522134 -0.113613 0)
(-0.0194107 -0.0755029 0)
(-0.00167211 -0.024873 0)
(-0.00142204 0.0288996 0)
(-0.0115164 0.068907 0)
(-0.027948 0.0939571 0)
(-0.0468956 0.107455 0)
(-0.0671399 0.112448 0)
(-0.0875281 0.111068 0)
(-0.107641 0.104511 0)
(-0.127094 0.0930693 0)
(-0.145484 0.0764279 0)
(-0.162163 0.0539724 0)
(-0.176161 0.0252115 0)
(-0.186117 -0.0097738 0)
(-0.19029 -0.0498005 0)
(-0.186647 -0.0920494 0)
(-0.173081 -0.131511 0)
(-0.148159 -0.160797 0)
(-0.111933 -0.170676 0)
(-0.0689804 -0.15283 0)
(-0.0270408 -0.105159 0)
(-0.00260197 -0.0361631 0)
(-0.00159788 0.0350638 0)
(-0.0125701 0.0826865 0)
(-0.0300451 0.111919 0)
(-0.0497836 0.127254 0)
(-0.070456 0.132801 0)
(-0.0909706 0.131296 0)
(-0.111037 0.124279 0)
(-0.130459 0.112081 0)
(-0.149037 0.0942473 0)
(-0.16635 0.0698732 0)
(-0.181664 0.0380817 0)
(-0.193839 -0.00150066 0)
(-0.201264 -0.04816 0)
(-0.201779 -0.0994572 0)
(-0.192711 -0.150354 0)
(-0.17132 -0.192478 0)
(-0.135698 -0.213618 0)
(-0.0884357 -0.20023 0)
(-0.0371678 -0.14385 0)
(-0.00405671 -0.0520876 0)
(-0.00185782 0.0417954 0)
(-0.0138629 0.0973339 0)
(-0.0322197 0.13058 0)
(-0.0522186 0.147296 0)
(-0.0723878 0.152948 0)
(-0.0917768 0.150974 0)
(-0.110258 0.143344 0)
(-0.12789 0.130465 0)
(-0.144739 0.11179 0)
(-0.160724 0.0861702 0)
(-0.17551 0.0523734 0)
(-0.188409 0.00954156 0)
(-0.198254 -0.042246 0)
(-0.203141 -0.101334 0)
(-0.200247 -0.163367 0)
(-0.185727 -0.219976 0)
(-0.155454 -0.256648 0)
(-0.108419 -0.253842 0)
(-0.0498561 -0.192379 0)
(-0.00627982 -0.0742393 0)
(-0.00233895 0.0494912 0)
(-0.0157712 0.113065 0)
(-0.0348611 0.149743 0)
(-0.0544402 0.166876 0)
(-0.0728784 0.171753 0)
(-0.0895365 0.168602 0)
(-0.104509 0.159919 0)
(-0.118201 0.146221 0)
(-0.131007 0.126942 0)
(-0.143274 0.100772 0)
(-0.155185 0.066222 0)
(-0.166674 0.0220004 0)
(-0.177282 -0.0325048 0)
(-0.185748 -0.0967243 0)
(-0.189693 -0.167703 0)
(-0.184762 -0.238415 0)
(-0.165073 -0.293711 0)
(-0.124881 -0.30886 0)
(-0.064363 -0.249795 0)
(-0.00956071 -0.104357 0)
(-0.00325907 0.0583796 0)
(-0.0190621 0.129702 0)
(-0.0387999 0.168687 0)
(-0.0570744 0.184707 0)
(-0.0721383 0.187517 0)
(-0.0840457 0.182187 0)
(-0.0932259 0.171803 0)
(-0.10057 0.157004 0)
(-0.106851 0.137271 0)
(-0.112891 0.111237 0)
(-0.119425 0.0772798 0)
(-0.127066 0.0338033 0)
(-0.136195 -0.020416 0)
(-0.146457 -0.0859727 0)
(-0.156519 -0.161775 0)
(-0.162374 -0.243457 0)
(-0.15769 -0.317645 0)
(-0.13189 -0.357417 0)
(-0.0784796 -0.312109 0)
(-0.0141415 -0.143756 0)
(-0.00512733 0.0705806 0)
(-0.0247536 0.148672 0)
(-0.044721 0.187629 0)
(-0.0602468 0.199816 0)
(-0.0696203 0.198526 0)
(-0.0742428 0.189581 0)
(-0.0750212 0.176631 0)
(-0.0735018 0.160352 0)
(-0.0708437 0.140272 0)
(-0.068335 0.115033 0)
(-0.0672065 0.0829895 0)
(-0.0686782 0.0423954 0)
(-0.0739407 -0.00839213 0)
(-0.0836139 -0.0709413 0)
(-0.0978388 -0.146041 0)
(-0.113787 -0.232779 0)
(-0.126581 -0.32206 0)
(-0.122024 -0.389725 0)
(-0.0877402 -0.371633 0)
(-0.0199823 -0.192759 0)
(-0.00873356 0.085966 0)
(-0.0350857 0.168406 0)
(-0.0538584 0.203813 0)
(-0.0637246 0.208835 0)
(-0.0634149 0.201341 0)
(-0.0570115 0.187591 0)
(-0.0460404 0.171544 0)
(-0.0328648 0.153731 0)
(-0.0189411 0.13366 0)
(-0.00590869 0.11001 0)
(0.00467137 0.0811944 0)
(0.0111538 0.0454772 0)
(0.0117144 0.00104919 0)
(0.00489913 -0.0542179 0)
(-0.0110213 -0.122531 0)
(-0.034899 -0.20631 0)
(-0.0652741 -0.302432 0)
(-0.0866716 -0.395208 0)
(-0.084807 -0.415988 0)
(-0.026153 -0.248138 0)
(-0.0151267 0.11444 0)
(-0.0492649 0.193634 0)
(-0.0612557 0.217572 0)
(-0.0590062 0.209178 0)
(-0.0426122 0.192375 0)
(-0.0202399 0.172636 0)
(0.0061647 0.153359 0)
(0.0335151 0.134476 0)
(0.0603305 0.115224 0)
(0.0848826 0.0942649 0)
(0.105554 0.0700991 0)
(0.120549 0.0411252 0)
(0.127703 0.00559803 0)
(0.125 -0.0386829 0)
(0.10938 -0.0946125 0)
(0.0802253 -0.166823 0)
(0.034269 -0.258276 0)
(-0.0147445 -0.366141 0)
(-0.0576704 -0.430861 0)
(-0.0292846 -0.304042 0)
(-0.0256699 0.143382 0)
(-0.06727 0.208724 0)
(-0.0531145 0.212609 0)
(-0.024077 0.188151 0)
(0.0195955 0.162717 0)
(0.0644393 0.139129 0)
(0.109608 0.118886 0)
(0.152187 0.101101 0)
(0.191419 0.0846026 0)
(0.226084 0.0680872 0)
(0.254979 0.0502257 0)
(0.276553 0.0297085 0)
(0.288713 0.00509247 0)
(0.289199 -0.0253891 0)
(0.274219 -0.0644584 0)
(0.241581 -0.116951 0)
(0.183454 -0.189881 0)
(0.109081 -0.293416 0)
(0.0125609 -0.392047 0)
(-0.0180956 -0.336235 0)
(-0.0183851 0.216055 0)
(-0.0190536 0.216316 0)
(0.0564013 0.180673 0)
(0.126199 0.137607 0)
(0.199696 0.106585 0)
(0.264012 0.0839976 0)
(0.321784 0.0671454 0)
(0.37211 0.0541272 0)
(0.415706 0.0433037 0)
(0.452511 0.033491 0)
(0.482162 0.0236667 0)
(0.503754 0.012968 0)
(0.515746 0.000467948 0)
(0.516102 -0.0148451 0)
(0.501347 -0.0349363 0)
(0.468291 -0.0631449 0)
(0.407008 -0.107533 0)
(0.318585 -0.186191 0)
(0.170051 -0.29607 0)
(0.0422946 -0.334553 0)
(0.211688 0.130082 0)
(0.298482 0.10144 0)
(0.452698 0.0675684 0)
(0.54422 0.0440031 0)
(0.617531 0.0285128 0)
(0.671496 0.0191941 0)
(0.713412 0.0132668 0)
(0.746277 0.00940546 0)
(0.77232 0.00666831 0)
(0.792674 0.00451197 0)
(0.807788 0.0025635 0)
(0.817519 0.000573233 0)
(0.821201 -0.0016974 0)
(0.817625 -0.00443564 0)
(0.804705 -0.00817653 0)
(0.779279 -0.0134923 0)
(0.733187 -0.0228594 0)
(0.657994 -0.0408203 0)
(0.497817 -0.0745048 0)
(0.288282 -0.136337 0)
)
;

boundaryField
{
    movingWall
    {
        type            fixedValue;
        value           uniform (1 0 0);
    }
    fixedWalls
    {
        type            noSlip;
    }
    frontAndBack
    {
        type            empty;
    }
}


// ************************************************************************* //
