/*--------------------------------*- C++ -*----------------------------------*\
| =========                 |                                                 |
| \\      /  F ield         | OpenFOAM: The Open Source CFD Toolbox           |
|  \\    /   O peration     | Version:  4.1                                   |
|   \\  /    A nd           | Web:      www.OpenFOAM.org                      |
|    \\/     M anipulation  |                                                 |
\*---------------------------------------------------------------------------*/
FoamFile
{
    version     2.0;
    format      ascii;
    class       volVectorField;
    location    "10";
    object      U;
}
// * * * * * * * * * * * * * * * * * * * * * * * * * * * * * * * * * * * * * //

dimensions      [0 1 -1 0 0 0 0];

internalField   nonuniform List<vector> 
400
(
(0.000199703 -0.000196846 0)
(-9.18971e-05 8.47965e-05 0)
(-0.00154179 0.000332604 0)
(-0.00374343 0.000515212 0)
(-0.00646117 0.000604265 0)
(-0.00935611 0.000634147 0)
(-0.0122029 0.000609766 0)
(-0.0147577 0.000535308 0)
(-0.0167925 0.000404615 0)
(-0.0180708 0.000215915 0)
(-0.018386 -2.41434e-05 0)
(-0.0176008 -0.000293286 0)
(-0.0157005 -0.000553658 0)
(-0.0128417 -0.000754366 0)
(-0.00935811 -0.000846061 0)
(-0.00575763 -0.000789139 0)
(-0.00258939 -0.000585929 0)
(-0.000408249 -0.0002582 0)
(0.000555714 7.25462e-05 0)
(0.000315888 0.000300984 0)
(-8.93242e-05 8.25563e-05 0)
(-0.00205984 0.00193363 0)
(-0.00647796 0.00365593 0)
(-0.0124385 0.00488836 0)
(-0.0194352 0.00551718 0)
(-0.0267338 0.00563336 0)
(-0.0337766 0.00527558 0)
(-0.0399735 0.0044634 0)
(-0.0447788 0.00319569 0)
(-0.0476684 0.0015036 0)
(-0.0482178 -0.000515724 0)
(-0.0461803 -0.00267207 0)
(-0.0415792 -0.00468526 0)
(-0.0347895 -0.00621638 0)
(-0.0265393 -0.00694304 0)
(-0.0178975 -0.00664041 0)
(-0.0100227 -0.00531162 0)
(-0.00408805 -0.00318845 0)
(-0.000620481 -0.000941313 0)
(0.000177643 0.000588198 0)
(-0.000419861 0.00167045 0)
(-0.00436574 0.00648141 0)
(-0.0117955 0.0105408 0)
(-0.0212168 0.0133261 0)
(-0.0319085 0.0146884 0)
(-0.0428559 0.0147678 0)
(-0.0532753 0.0136414 0)
(-0.0623412 0.0113566 0)
(-0.0692992 0.0079502 0)
(-0.0734459 0.00354332 0)
(-0.0742277 -0.00159119 0)
(-0.0713304 -0.00698377 0)
(-0.0647858 -0.0119797 0)
(-0.0550711 -0.0158097 0)
(-0.0431198 -0.0177429 0)
(-0.0303367 -0.0172701 0)
(-0.018292 -0.0143671 0)
(-0.00867398 -0.00955669 0)
(-0.00234436 -0.00420631 0)
(-1.4334e-05 -1.03724e-05 0)
(-0.000744613 0.00444101 0)
(-0.00663255 0.0134325 0)
(-0.0169509 0.0204068 0)
(-0.0295586 0.0249543 0)
(-0.0435311 0.0270327 0)
(-0.0576323 0.0268748 0)
(-0.0709375 0.0246141 0)
(-0.0824761 0.0203373 0)
(-0.09137 0.014137 0)
(-0.0968016 0.0062474 0)
(-0.0981155 -0.00285441 0)
(-0.0949051 -0.0123854 0)
(-0.0871255 -0.0212686 0)
(-0.0752188 -0.0282327 0)
(-0.060164 -0.0320328 0)
(-0.0435701 -0.0317492 0)
(-0.0273604 -0.0272149 0)
(-0.0138133 -0.0191918 0)
(-0.00427187 -0.00976504 0)
(-0.000209324 -0.00151966 0)
(-0.00102138 0.0083636 0)
(-0.00866066 0.022751 0)
(-0.0216134 0.033198 0)
(-0.0371038 0.0396779 0)
(-0.0540147 0.0424239 0)
(-0.0709321 0.0418331 0)
(-0.0868518 0.0381289 0)
(-0.100728 0.0314491 0)
(-0.11162 0.0219454 0)
(-0.11863 0.00996062 0)
(-0.120997 -0.00383602 0)
(-0.118165 -0.0183586 0)
(-0.109903 -0.0320983 0)
(-0.0964708 -0.0432234 0)
(-0.0787313 -0.0498431 0)
(-0.0583841 -0.0504231 0)
(-0.0376922 -0.0444232 0)
(-0.0196797 -0.032688 0)
(-0.00640141 -0.01802 0)
(-0.000389371 -0.00403306 0)
(-0.00125507 0.0132519 0)
(-0.0103898 0.0340938 0)
(-0.0256168 0.0484961 0)
(-0.0436028 0.057045 0)
(-0.063067 0.0604186 0)
(-0.0824645 0.0592665 0)
(-0.100765 0.0539457 0)
(-0.11691 0.0446538 0)
(-0.129944 0.031587 0)
(-0.138922 0.0151566 0)
(-0.142971 -0.00383532 0)
(-0.141336 -0.0240659 0)
(-0.1335 -0.0436362 0)
(-0.119379 -0.0601286 0)
(-0.0995331 -0.0708627 0)
(-0.0755767 -0.0734055 0)
(-0.0500355 -0.0664634 0)
(-0.0268229 -0.0506472 0)
(-0.00900266 -0.0294146 0)
(-0.000604806 -0.00766673 0)
(-0.00143543 0.018948 0)
(-0.0117512 0.0471411 0)
(-0.0287979 0.0659208 0)
(-0.0487927 0.0766745 0)
(-0.0703301 0.0806788 0)
(-0.0917848 0.0789251 0)
(-0.11215 0.0719527 0)
(-0.130406 0.0600268 0)
(-0.145641 0.0433614 0)
(-0.156902 0.0223739 0)
(-0.163224 -0.00209512 0)
(-0.163643 -0.0285992 0)
(-0.157284 -0.0549494 0)
(-0.143591 -0.0781746 0)
(-0.122596 -0.0946895 0)
(-0.0955545 -0.100833 0)
(-0.0650268 -0.0940066 0)
(-0.0358392 -0.0740258 0)
(-0.0123975 -0.044765 0)
(-0.000904868 -0.0127464 0)
(-0.00155726 0.025234 0)
(-0.0126901 0.0614522 0)
(-0.0310119 0.0849349 0)
(-0.0524109 0.0980065 0)
(-0.0753948 0.102674 0)
(-0.0983093 0.100358 0)
(-0.120214 0.0918313 0)
(-0.140188 0.0774396 0)
(-0.157418 0.0573869 0)
(-0.17101 0.0320244 0)
(-0.179972 0.00211531 0)
(-0.183175 -0.0309252 0)
(-0.179402 -0.0647889 0)
(-0.167539 -0.0960851 0)
(-0.146885 -0.120314 0)
(-0.117959 -0.132296 0)
(-0.0829165 -0.127435 0)
(-0.0472463 -0.103833 0)
(-0.016949 -0.0651328 0)
(-0.00135648 -0.0197677 0)
(-0.00161774 0.0318856 0)
(-0.013173 0.0765527 0)
(-0.0321542 0.104937 0)
(-0.0542354 0.120381 0)
(-0.0778682 0.125734 0)
(-0.101419 0.122925 0)
(-0.124052 0.113026 0)
(-0.145001 0.0964805 0)
(-0.16362 0.0734692 0)
(-0.179161 0.044216 0)
(-0.19071 0.00929285 0)
(-0.197094 -0.0300925 0)
(-0.196859 -0.0717488 0)
(-0.188362 -0.11213 0)
(-0.170042 -0.146004 0)
(-0.141294 -0.166565 0)
(-0.103217 -0.166515 0)
(-0.0612846 -0.140922 0)
(-0.0230193 -0.0917994 0)
(-0.00204163 -0.0294469 0)
(-0.00162573 0.0386549 0)
(-0.0132286 0.0919072 0)
(-0.0322291 0.125221 0)
(-0.054181 0.142973 0)
(-0.0774994 0.148962 0)
(-0.100623 0.1457 0)
(-0.12286 0.134628 0)
(-0.143654 0.116326 0)
(-0.162595 0.0909564 0)
(-0.179179 0.0585848 0)
(-0.192703 0.019506 0)
(-0.202126 -0.0254443 0)
(-0.205948 -0.074463 0)
(-0.202172 -0.124236 0)
(-0.188428 -0.169226 0)
(-0.162711 -0.201246 0)
(-0.124363 -0.209844 0)
(-0.0776708 -0.185484 0)
(-0.0309366 -0.126037 0)
(-0.00307406 -0.0427156 0)
(-0.00161839 0.0453757 0)
(-0.0129934 0.107061 0)
(-0.0314177 0.145098 0)
(-0.0523903 0.164892 0)
(-0.0743015 0.171309 0)
(-0.0957332 0.167516 0)
(-0.116177 0.155408 0)
(-0.135349 0.135745 0)
(-0.153134 0.108708 0)
(-0.169361 0.0742063 0)
(-0.183668 0.0322206 0)
(-0.195324 -0.0169007 0)
(-0.203041 -0.0719886 0)
(-0.204763 -0.130405 0)
(-0.197589 -0.186955 0)
(-0.178131 -0.232785 0)
(-0.143486 -0.254434 0)
(-0.0952667 -0.236427 0)
(-0.0408942 -0.168751 0)
(-0.00461176 -0.0607315 0)
(-0.00166526 0.0519208 0)
(-0.0127791 0.121579 0)
(-0.030189 0.163841 0)
(-0.0493704 0.185121 0)
(-0.0687022 0.191533 0)
(-0.087031 0.186963 0)
(-0.104091 0.173842 0)
(-0.119943 0.153159 0)
(-0.134815 0.125159 0)
(-0.148931 0.0896294 0)
(-0.162352 0.0462544 0)
(-0.174803 -0.00514045 0)
(-0.185447 -0.0641715 0)
(-0.19253 -0.129262 0)
(-0.193108 -0.196298 0)
(-0.182799 -0.256897 0)
(-0.15649 -0.295619 0)
(-0.111759 -0.290707 0)
(-0.0527472 -0.219869 0)
(-0.00686575 -0.0848091 0)
(-0.00192792 0.0586147 0)
(-0.0131319 0.135525 0)
(-0.0293067 0.181071 0)
(-0.0459597 0.202798 0)
(-0.0614847 0.208408 0)
(-0.0752057 0.202551 0)
(-0.0871847 0.188269 0)
(-0.0979167 0.166796 0)
(-0.108003 0.138475 0)
(-0.118085 0.103012 0)
(-0.128674 0.059854 0)
(-0.140012 0.00835417 0)
(-0.151886 -0.0518993 0)
(-0.16316 -0.120596 0)
(-0.171443 -0.195314 0)
(-0.172074 -0.269479 0)
(-0.158481 -0.327583 0)
(-0.123488 -0.342996 0)
(-0.0656448 -0.277586 0)
(-0.0100836 -0.116292 0)
(-0.00265693 0.065726 0)
(-0.0150396 0.148794 0)
(-0.0300806 0.196148 0)
(-0.0435313 0.216742 0)
(-0.0538671 0.220403 0)
(-0.0613003 0.212547 0)
(-0.0663456 0.196853 0)
(-0.0700623 0.174757 0)
(-0.0734336 0.146698 0)
(-0.0775058 0.112331 0)
(-0.0832056 0.0709373 0)
(-0.0912759 0.0215168 0)
(-0.10218 -0.0369992 0)
(-0.115599 -0.105513 0)
(-0.13024 -0.183576 0)
(-0.14201 -0.267565 0)
(-0.144315 -0.344346 0)
(-0.125507 -0.385858 0)
(-0.0775224 -0.337485 0)
(-0.01447 -0.156059 0)
(-0.00440047 0.0755309 0)
(-0.019793 0.163093 0)
(-0.0337834 0.209601 0)
(-0.0431106 0.226305 0)
(-0.0464637 0.226161 0)
(-0.0455949 0.215215 0)
(-0.0416081 0.19769 0)
(-0.0362778 0.175062 0)
(-0.0309513 0.147785 0)
(-0.0270429 0.115446 0)
(-0.0258181 0.0772172 0)
(-0.0284415 0.0318898 0)
(-0.0360088 -0.0220253 0)
(-0.0490472 -0.0863433 0)
(-0.0677099 -0.162432 0)
(-0.0892098 -0.250172 0)
(-0.108764 -0.341105 0)
(-0.111636 -0.410795 0)
(-0.0843898 -0.392184 0)
(-0.0199773 -0.204104 0)
(-0.00801344 0.088259 0)
(-0.0299968 0.177517 0)
(-0.0423813 0.219403 0)
(-0.0455409 0.228792 0)
(-0.0386846 0.222835 0)
(-0.0263951 0.207868 0)
(-0.0104861 0.188341 0)
(0.00639901 0.165511 0)
(0.0226314 0.139687 0)
(0.0365168 0.110352 0)
(0.04657 0.0766135 0)
(0.0513309 0.0372008 0)
(0.0492038 -0.00952444 0)
(0.0389395 -0.0658227 0)
(0.0188872 -0.134314 0)
(-0.00985587 -0.218055 0)
(-0.0460755 -0.314682 0)
(-0.0742335 -0.408841 0)
(-0.079592 -0.43038 0)
(-0.0257338 -0.257204 0)
(-0.0146266 0.114329 0)
(-0.0452641 0.197651 0)
(-0.051707 0.226769 0)
(-0.0433975 0.222404 0)
(-0.0208298 0.207459 0)
(0.00722805 0.187348 0)
(0.0384511 0.165841 0)
(0.0694 0.14345 0)
(0.0983882 0.12004 0)
(0.123633 0.0948962 0)
(0.143614 0.0670606 0)
(0.156757 0.0353178 0)
(0.161186 -0.00189961 0)
(0.155153 -0.0468176 0)
(0.135793 -0.102568 0)
(0.102505 -0.174176 0)
(0.0518644 -0.265247 0)
(-0.00261775 -0.373513 0)
(-0.0517403 -0.439107 0)
(-0.0285019 -0.309933 0)
(-0.0256216 0.141888 0)
(-0.0656158 0.20918 0)
(-0.0480317 0.216741 0)
(-0.0146517 0.195503 0)
(0.0340329 0.171826 0)
(0.0838901 0.148431 0)
(0.13358 0.127051 0)
(0.179737 0.107187 0)
(0.221308 0.0880864 0)
(0.256946 0.0688712 0)
(0.285487 0.0485864 0)
(0.30556 0.0262069 0)
(0.315352 0.000446468 0)
(0.312892 -0.0304303 0)
(0.294678 -0.0692517 0)
(0.258637 -0.121039 0)
(0.196997 -0.193216 0)
(0.118702 -0.296413 0)
(0.0177796 -0.395454 0)
(-0.0171754 -0.338971 0)
(-0.0187454 0.214592 0)
(-0.0197926 0.215336 0)
(0.0566266 0.181565 0)
(0.128666 0.140358 0)
(0.205527 0.110486 0)
(0.273704 0.0882312 0)
(0.335275 0.0709856 0)
(0.388834 0.0570444 0)
(0.434727 0.0449908 0)
(0.472698 0.033865 0)
(0.502353 0.0228484 0)
(0.522909 0.0112355 0)
(0.533064 -0.0018048 0)
(0.53107 -0.017257 0)
(0.513769 -0.0371228 0)
(0.478185 -0.0648195 0)
(0.414605 -0.108581 0)
(0.323946 -0.186719 0)
(0.173176 -0.296555 0)
(0.0429768 -0.335038 0)
(0.211333 0.12954 0)
(0.297282 0.100936 0)
(0.451181 0.0674639 0)
(0.543295 0.0443126 0)
(0.618064 0.0290824 0)
(0.673958 0.0198459 0)
(0.717884 0.0138442 0)
(0.752477 0.00980034 0)
(0.779712 0.00682548 0)
(0.80059 0.00442607 0)
(0.815545 0.00227235 0)
(0.82453 0.000144925 0)
(0.82705 -0.00217841 0)
(0.822107 -0.00488633 0)
(0.807827 -0.0085253 0)
(0.781234 -0.0136928 0)
(0.734298 -0.0229001 0)
(0.658596 -0.0407277 0)
(0.498162 -0.0743677 0)
(0.288347 -0.136214 0)
)
;

boundaryField
{
    movingWall
    {
        type            fixedValue;
        value           uniform (1 0 0);
    }
    fixedWalls
    {
        type            noSlip;
    }
    frontAndBack
    {
        type            empty;
    }
}


// ************************************************************************* //
