/*--------------------------------*- C++ -*----------------------------------*\
| =========                 |                                                 |
| \\      /  F ield         | OpenFOAM: The Open Source CFD Toolbox           |
|  \\    /   O peration     | Version:  4.1                                   |
|   \\  /    A nd           | Web:      www.OpenFOAM.org                      |
|    \\/     M anipulation  |                                                 |
\*---------------------------------------------------------------------------*/
FoamFile
{
    version     2.0;
    format      ascii;
    class       volVectorField;
    location    "19.5";
    object      U;
}
// * * * * * * * * * * * * * * * * * * * * * * * * * * * * * * * * * * * * * //

dimensions      [0 1 -1 0 0 0 0];

internalField   nonuniform List<vector> 
400
(
(0.000201353 -0.000198504 0)
(-9.00437e-05 8.44758e-05 0)
(-0.00154595 0.000333626 0)
(-0.00375792 0.000517282 0)
(-0.0064889 0.000606884 0)
(-0.00939802 0.000637007 0)
(-0.0122585 0.000612563 0)
(-0.0148252 0.000537733 0)
(-0.0168684 0.000406314 0)
(-0.0181506 0.000216548 0)
(-0.0184641 -2.48163e-05 0)
(-0.0176715 -0.000295305 0)
(-0.0157586 -0.000556795 0)
(-0.0128839 -0.000758111 0)
(-0.00938331 -0.000849705 0)
(-0.00576763 -0.000791925 0)
(-0.00258845 -0.0005873 0)
(-0.000402208 -0.000257956 0)
(0.000561176 7.39651e-05 0)
(0.000317513 0.000302592 0)
(-8.92319e-05 8.0664e-05 0)
(-0.00206877 0.00194089 0)
(-0.00650967 0.00367274 0)
(-0.0125017 0.00491213 0)
(-0.0195351 0.00554436 0)
(-0.0268711 0.00566086 0)
(-0.0339483 0.00530049 0)
(-0.0401731 0.00448294 0)
(-0.0449966 0.00320724 0)
(-0.0478922 0.0015051 0)
(-0.0484343 -0.000525284 0)
(-0.0463765 -0.00269215 0)
(-0.0417441 -0.00471357 0)
(-0.0349158 -0.00624897 0)
(-0.0266248 -0.00697489 0)
(-0.0179455 -0.00666642 0)
(-0.0100415 -0.00532797 0)
(-0.0040894 -0.00319373 0)
(-0.000616109 -0.000937981 0)
(0.000179272 0.000593685 0)
(-0.00042205 0.00167641 0)
(-0.00439012 0.00651292 0)
(-0.011862 0.0105949 0)
(-0.0213357 0.0133953 0)
(-0.0320852 0.0147636 0)
(-0.0430888 0.014841 0)
(-0.053558 0.013705 0)
(-0.062662 0.0114037 0)
(-0.0696429 0.00797509 0)
(-0.0737948 0.00354188 0)
(-0.0745633 -0.00162021 0)
(-0.0716353 -0.00703811 0)
(-0.0650459 -0.0120533 0)
(-0.0552768 -0.0158935 0)
(-0.0432676 -0.0178253 0)
(-0.0304298 -0.0173397 0)
(-0.0183398 -0.0144151 0)
(-0.00869084 -0.00957936 0)
(-0.00234559 -0.00420782 0)
(-1.33167e-05 -3.11686e-06 0)
(-0.000749211 0.0044633 0)
(-0.00667269 0.0135045 0)
(-0.0170515 0.0205171 0)
(-0.0297302 0.0250873 0)
(-0.0437773 0.0271724 0)
(-0.0579485 0.0270066 0)
(-0.071313 0.0247251 0)
(-0.0828951 0.0204162 0)
(-0.0918133 0.0141749 0)
(-0.0972481 0.00623887 0)
(-0.0985441 -0.00291008 0)
(-0.0952969 -0.0124835 0)
(-0.0874647 -0.021399 0)
(-0.0754944 -0.0283805 0)
(-0.0603707 -0.0321799 0)
(-0.0437093 -0.0318772 0)
(-0.0274405 -0.0273087 0)
(-0.0138489 -0.019244 0)
(-0.0042805 -0.00977999 0)
(-0.00020917 -0.00151421 0)
(-0.00102792 0.00841014 0)
(-0.00871352 0.0228784 0)
(-0.0217411 0.0333811 0)
(-0.0373161 0.0398902 0)
(-0.0543129 0.0426404 0)
(-0.0713082 0.0420323 0)
(-0.0872916 0.0382922 0)
(-0.101213 0.0315611 0)
(-0.112128 0.021995 0)
(-0.119139 0.00994184 0)
(-0.121486 -0.00392261 0)
(-0.118616 -0.0185057 0)
(-0.1103 -0.0322918 0)
(-0.0968014 -0.0434433 0)
(-0.0789883 -0.0500653 0)
(-0.0585659 -0.050622 0)
(-0.0378038 -0.0445765 0)
(-0.0197345 -0.0327826 0)
(-0.00641774 -0.0180579 0)
(-0.000390077 -0.00403341 0)
(-0.00126283 0.0133282 0)
(-0.0104502 0.0342865 0)
(-0.0257601 0.0487625 0)
(-0.0438375 0.057345 0)
(-0.0633919 0.0607176 0)
(-0.0828685 0.0595357 0)
(-0.101232 0.0541613 0)
(-0.117418 0.0447975 0)
(-0.130473 0.0316464 0)
(-0.13945 0.0151265 0)
(-0.14348 -0.00395259 0)
(-0.14181 -0.0242605 0)
(-0.133924 -0.0438913 0)
(-0.119742 -0.0604209 0)
(-0.0998255 -0.0711634 0)
(-0.0757927 -0.0736829 0)
(-0.0501752 -0.0666871 0)
(-0.0268961 -0.050796 0)
(-0.0090267 -0.029485 0)
(-0.000606413 -0.00767683 0)
(-0.00144341 0.0190564 0)
(-0.0118127 0.047403 0)
(-0.0289424 0.0662737 0)
(-0.0490272 0.0770636 0)
(-0.0706513 0.0810594 0)
(-0.0921796 0.0792613 0)
(-0.1126 0.0722165 0)
(-0.130892 0.0601981 0)
(-0.146142 0.0434284 0)
(-0.157401 0.0223331 0)
(-0.163706 -0.00223906 0)
(-0.164095 -0.0288345 0)
(-0.157697 -0.0552577 0)
(-0.143955 -0.0785315 0)
(-0.122901 -0.0950643 0)
(-0.0957899 -0.101189 0)
(-0.0651872 -0.0943069 0)
(-0.0359282 -0.0742382 0)
(-0.0124289 -0.0448764 0)
(-0.000907448 -0.0127703 0)
(-0.00156439 0.0253731 0)
(-0.0127454 0.0617798 0)
(-0.031142 0.085369 0)
(-0.0526211 0.0984779 0)
(-0.0756802 0.103128 0)
(-0.098656 0.100752 0)
(-0.120604 0.0921345 0)
(-0.140602 0.0776318 0)
(-0.15784 0.0574581 0)
(-0.171426 0.0319742 0)
(-0.180373 0.00195133 0)
(-0.183555 -0.0311894 0)
(-0.179756 -0.065135 0)
(-0.167862 -0.0964899 0)
(-0.147168 -0.120748 0)
(-0.118191 -0.132722 0)
(-0.0830849 -0.127811 0)
(-0.0473463 -0.104114 0)
(-0.0169869 -0.0652923 0)
(-0.00136012 -0.0198092 0)
(-0.00162299 0.0320502 0)
(-0.0132152 0.0769354 0)
(-0.0322548 0.105439 0)
(-0.0543983 0.12092 0)
(-0.0780879 0.126246 0)
(-0.101682 0.123362 0)
(-0.124341 0.113355 0)
(-0.145301 0.096684 0)
(-0.163917 0.0735397 0)
(-0.179447 0.0441572 0)
(-0.190981 0.00911605 0)
(-0.197353 -0.0303717 0)
(-0.197106 -0.0721127 0)
(-0.188598 -0.112559 0)
(-0.170264 -0.146473 0)
(-0.141492 -0.167041 0)
(-0.103374 -0.166953 0)
(-0.0613866 -0.141269 0)
(-0.0230618 -0.0920105 0)
(-0.00204638 -0.0295092 0)
(-0.00162828 0.0388366 0)
(-0.013252 0.0923279 0)
(-0.0322878 0.12577 0)
(-0.0542777 0.143559 0)
(-0.077629 0.149512 0)
(-0.100774 0.146162 0)
(-0.123018 0.134969 0)
(-0.143807 0.116529 0)
(-0.162733 0.0910195 0)
(-0.1793 0.0585167 0)
(-0.19281 0.0193225 0)
(-0.202225 -0.0257253 0)
(-0.206049 -0.0748241 0)
(-0.202283 -0.124661 0)
(-0.188551 -0.169698 0)
(-0.162841 -0.20174 0)
(-0.124484 -0.21032 0)
(-0.0777618 -0.185884 0)
(-0.0309801 -0.126298 0)
(-0.0030798 -0.042801 0)
(-0.00161772 0.0455632 0)
(-0.0129941 0.107498 0)
(-0.0314261 0.14567 0)
(-0.052408 0.165499 0)
(-0.0743249 0.171873 0)
(-0.095754 0.167983 0)
(-0.116186 0.155743 0)
(-0.135337 0.135936 0)
(-0.153098 0.108757 0)
(-0.169304 0.0741276 0)
(-0.183597 0.0320346 0)
(-0.19525 -0.0171731 0)
(-0.202978 -0.0723294 0)
(-0.204725 -0.130801 0)
(-0.197586 -0.187398 0)
(-0.178165 -0.233259 0)
(-0.143546 -0.254912 0)
(-0.0953304 -0.236855 0)
(-0.040933 -0.169052 0)
(-0.00461813 -0.0608398 0)
(-0.00166124 0.0521018 0)
(-0.0127557 0.122006 0)
(-0.0301433 0.164405 0)
(-0.0493039 0.18572 0)
(-0.0686138 0.192086 0)
(-0.0869175 0.187413 0)
(-0.103949 0.174157 0)
(-0.11977 0.153328 0)
(-0.134613 0.12519 0)
(-0.148706 0.0895395 0)
(-0.162116 0.0460689 0)
(-0.174568 -0.00539737 0)
(-0.185231 -0.064481 0)
(-0.192348 -0.129613 0)
(-0.192975 -0.196686 0)
(-0.182725 -0.257318 0)
(-0.156472 -0.296061 0)
(-0.11178 -0.291129 0)
(-0.052774 -0.22019 0)
(-0.00687207 -0.084937 0)
(-0.00192075 0.0587767 0)
(-0.0130852 0.135919 0)
(-0.0292086 0.181598 0)
(-0.0458115 0.203361 0)
(-0.0612891 0.208927 0)
(-0.0749659 0.202969 0)
(-0.086904 0.188554 0)
(-0.0976001 0.166939 0)
(-0.107658 0.138486 0)
(-0.117722 0.102913 0)
(-0.128305 0.0596731 0)
(-0.139652 0.008117 0)
(-0.151549 -0.0521725 0)
(-0.162863 -0.120894 0)
(-0.171201 -0.195634 0)
(-0.1719 -0.269826 0)
(-0.158383 -0.327958 0)
(-0.123456 -0.343376 0)
(-0.0656521 -0.277902 0)
(-0.0100888 -0.116432 0)
(-0.00264712 0.0658578 0)
(-0.0149729 0.14913 0)
(-0.0299368 0.196611 0)
(-0.0433119 0.217244 0)
(-0.0535789 0.220867 0)
(-0.0609534 0.212918 0)
(-0.0659511 0.197101 0)
(-0.0696324 0.174874 0)
(-0.0729815 0.146694 0)
(-0.0770449 0.11223 0)
(-0.082749 0.0707672 0)
(-0.0908364 0.0213035 0)
(-0.10177 -0.0372348 0)
(-0.115231 -0.105758 0)
(-0.129926 -0.183828 0)
(-0.141765 -0.267832 0)
(-0.14415 -0.344636 0)
(-0.125424 -0.386168 0)
(-0.0775051 -0.337766 0)
(-0.0144727 -0.156199 0)
(-0.00438886 0.0756236 0)
(-0.0197123 0.163353 0)
(-0.0336067 0.209977 0)
(-0.0428396 0.226724 0)
(-0.0461084 0.226555 0)
(-0.0451716 0.215531 0)
(-0.0411349 0.197899 0)
(-0.0357734 0.175158 0)
(-0.0304335 0.147776 0)
(-0.0265277 0.115353 0)
(-0.0253189 0.0770667 0)
(-0.0279691 0.031706 0)
(-0.0355719 -0.0222223 0)
(-0.0486536 -0.0865403 0)
(-0.0673684 -0.162624 0)
(-0.0889306 -0.250365 0)
(-0.10856 -0.34131 0)
(-0.111514 -0.411021 0)
(-0.0843479 -0.392407 0)
(-0.0199763 -0.20423 0)
(-0.00800164 0.0883084 0)
(-0.0299125 0.177691 0)
(-0.0421936 0.219678 0)
(-0.0452504 0.229116 0)
(-0.0383024 0.223149 0)
(-0.0259408 0.208124 0)
(-0.00998181 0.188514 0)
(0.00693026 0.165591 0)
(0.0231685 0.139682 0)
(0.0370421 0.110278 0)
(0.0470699 0.0764919 0)
(0.0517962 0.0370526 0)
(0.0496284 -0.00968121 0)
(0.0393192 -0.0659751 0)
(0.019218 -0.134456 0)
(-0.00957959 -0.218187 0)
(-0.0458631 -0.314814 0)
(-0.0740946 -0.408986 0)
(-0.0795323 -0.430534 0)
(-0.0257284 -0.257303 0)
(-0.0146175 0.114338 0)
(-0.0451935 0.19774 0)
(-0.0515427 0.226943 0)
(-0.0431369 0.222628 0)
(-0.0204796 0.207687 0)
(0.00765053 0.187542 0)
(0.038924 0.165977 0)
(0.0698997 0.143519 0)
(0.0988924 0.120044 0)
(0.124123 0.0948476 0)
(0.144075 0.0669742 0)
(0.157181 0.03521 0)
(0.161567 -0.00201417 0)
(0.15549 -0.0469274 0)
(0.136083 -0.102666 0)
(0.102748 -0.17426 0)
(0.0520553 -0.265323 0)
(-0.00248597 -0.37359 0)
(-0.0516752 -0.439193 0)
(-0.0284929 -0.309996 0)
(-0.0256193 0.14187 0)
(-0.0655802 0.209204 0)
(-0.0479326 0.216828 0)
(-0.0144782 0.195635 0)
(0.0342845 0.171971 0)
(0.0842107 0.148562 0)
(0.133953 0.127148 0)
(0.180143 0.10724 0)
(0.221724 0.0880979 0)
(0.257354 0.0688464 0)
(0.285871 0.0485349 0)
(0.30591 0.0261396 0)
(0.315662 0.000373725 0)
(0.31316 -0.0304998 0)
(0.294903 -0.0693117 0)
(0.258822 -0.121086 0)
(0.197142 -0.193251 0)
(0.118804 -0.296444 0)
(0.0178354 -0.395489 0)
(-0.0171653 -0.338999 0)
(-0.0187504 0.21457 0)
(-0.0197984 0.215328 0)
(0.0566449 0.181591 0)
(0.128728 0.140413 0)
(0.205648 0.110553 0)
(0.273883 0.0882946 0)
(0.335505 0.0710346 0)
(0.389098 0.0570734 0)
(0.435009 0.0449989 0)
(0.472979 0.0338546 0)
(0.502619 0.0228242 0)
(0.523148 0.0112032 0)
(0.53327 -0.00183965 0)
(0.531241 -0.0172895 0)
(0.513906 -0.0371496 0)
(0.478291 -0.0648382 0)
(0.414685 -0.108591 0)
(0.324002 -0.186723 0)
(0.173209 -0.296559 0)
(0.042984 -0.335042 0)
(0.211327 0.129531 0)
(0.297264 0.10093 0)
(0.451162 0.0674647 0)
(0.543291 0.0443198 0)
(0.618088 0.0290927 0)
(0.674014 0.0198559 0)
(0.717968 0.0138516 0)
(0.752581 0.00980391 0)
(0.779826 0.00682516 0)
(0.800703 0.0044225 0)
(0.815649 0.00226661 0)
(0.824617 0.000138257 0)
(0.827118 -0.00218487 0)
(0.822155 -0.00489167 0)
(0.807859 -0.00852892 0)
(0.781252 -0.0136945 0)
(0.734307 -0.0228999 0)
(0.658601 -0.0407263 0)
(0.498165 -0.0743659 0)
(0.288347 -0.136213 0)
)
;

boundaryField
{
    movingWall
    {
        type            fixedValue;
        value           uniform (1 0 0);
    }
    fixedWalls
    {
        type            noSlip;
    }
    frontAndBack
    {
        type            empty;
    }
}


// ************************************************************************* //
