/*--------------------------------*- C++ -*----------------------------------*\
| =========                 |                                                 |
| \\      /  F ield         | OpenFOAM: The Open Source CFD Toolbox           |
|  \\    /   O peration     | Version:  4.1                                   |
|   \\  /    A nd           | Web:      www.OpenFOAM.org                      |
|    \\/     M anipulation  |                                                 |
\*---------------------------------------------------------------------------*/
FoamFile
{
    version     2.0;
    format      ascii;
    class       volScalarField;
    location    "0.0076";
    object      p;
}
// * * * * * * * * * * * * * * * * * * * * * * * * * * * * * * * * * * * * * //

dimensions      [1 -1 -2 0 0 0 0];

internalField   nonuniform List<scalar> 
441
(
100000
99999.9
99999.8
99999.8
99999.9
99999.5
99999.9
100000
100000
100001
100001
100001
100001
100001
100001
100001
100001
100001
100001
100001
100001
100000
100000
100000
100000
100000
100000
100000
100000
100000
100000
100000
100000
100000
100001
100000
100001
100000
100001
100000
100001
100000
100000
99999.9
100000
99999.9
100000
99999.9
100000
100000
100000
100000
100001
100001
100001
100001
100001
100001
100001
100001
100001
100001
100000
100000
100000
100000
100000
100000
100000
100000
100000
100000
100000
100000
100000
100000
100001
100000
100001
100000
100001
100000
100001
100000
100000
99999.7
99999.9
99999.8
99999.9
99999.9
100000
100000
100000
100000
100000
100001
100001
100001
100001
100001
100001
100001
100001
100001
100000
99999.3
99999.8
99999.6
99999.8
99999.8
99999.9
100000
100000
100000
100000
100000
100000
100001
100001
100001
100001
100001
100001
100001
100001
100000
99999
99999.3
99999.3
99999.4
99999.5
99999.6
99999.8
99999.9
100000
100000
100000
100001
100001
100001
100001
100001
100001
100001
100001
100001
100000
99999.2
99999.2
99999.2
99999.3
99999.3
99999.5
99999.6
99999.8
99999.9
100000
100000
100001
100001
100001
100001
100001
100001
100001
100001
100001
100000
99998.7
99998.6
99998.6
99998.8
99998.9
99999.1
99999.3
99999.5
99999.7
100000
100000
100001
100001
100001
100001
100001
100001
100002
100001
100002
100001
99998.5
99998.4
99998.4
99998.5
99998.6
99998.8
99999
99999.3
99999.5
99999.9
100000
100001
100001
100001
100001
100002
100002
100002
100001
100002
100001
99997.6
99997.5
99997.5
99997.7
99997.9
99998.2
99998.4
99998.8
99999.2
99999.6
100000
100001
100001
100001
100002
100002
100002
100003
100002
100003
100003
99997.3
99997.2
99997.2
99997.4
99997.5
99997.8
99998
99998.5
99998.9
99999.3
99999.9
100000
100001
100001
100002
100002
100003
100003
100003
100003
100002
99996
99995.9
99995.8
99996.2
99996.3
99996.9
99997.2
99997.8
99998.3
99998.9
99999.7
100000
100001
100002
100003
100003
100004
100004
100004
100005
100002
99995.7
99995.6
99995.4
99995.8
99995.8
99996.4
99996.6
99997.3
99997.8
99998.5
99999.3
100000
100001
100002
100003
100003
100004
100004
100004
100005
100003
99993.4
99993.5
99993.3
99994.1
99994.1
99995.1
99995.4
99996.3
99997
99997.9
99998.9
99999.7
100001
100002
100004
100004
100006
100006
100007
100007
100003
99993.3
99993.5
99992.9
99993.8
99993.5
99994.5
99994.7
99995.6
99996.3
99997.2
99998.3
99999.1
100001
100001
100003
100004
100006
100006
100006
100007
99998.5
99988.8
99990.1
99989.3
99991.3
99991
99992.7
99993.1
99994.5
99995.3
99996.5
99997.8
99998.7
100001
100001
100004
100005
100009
100008
100016
100010
100028
99989.3
99990.7
99989.3
99991.2
99990.5
99992.1
99992.3
99993.7
99994.6
99995.7
99997.1
99997.9
99999.8
100000
100003
100003
100008
100008
100015
100016
100027
99977.9
99985.3
99983.2
99988.1
99987.5
99990.4
99990.8
99992.8
99993.8
99995.2
99996.7
99997.7
99999.9
100000
100004
100004
100010
100010
100022
100024
100040
99978.8
99987.5
99984.7
99988.8
99987.8
99990.4
99990.7
99992.5
99993.5
99994.9
99996.4
99997.3
99999.4
99999.8
100003
100003
100009
100009
100022
100025
100046
99937.3
99980.9
99979
99989.1
99987.7
99991.1
99991.2
99993
99993.9
99995.2
99996.7
99997.6
99999.8
100000
100004
100004
100012
100014
100034
100043
100101
)
;

boundaryField
{
    movingWall
    {
        type            zeroGradient;
    }
    fixedWalls
    {
        type            zeroGradient;
    }
    frontAndBack
    {
        type            empty;
    }
}


// ************************************************************************* //
