/*--------------------------------*- C++ -*----------------------------------*\
| =========                 |                                                 |
| \\      /  F ield         | OpenFOAM: The Open Source CFD Toolbox           |
|  \\    /   O peration     | Version:  4.1                                   |
|   \\  /    A nd           | Web:      www.OpenFOAM.org                      |
|    \\/     M anipulation  |                                                 |
\*---------------------------------------------------------------------------*/
FoamFile
{
    version     2.0;
    format      ascii;
    class       volVectorField;
    location    "12.5";
    object      U;
}
// * * * * * * * * * * * * * * * * * * * * * * * * * * * * * * * * * * * * * //

dimensions      [0 1 -1 0 0 0 0];

internalField   nonuniform List<vector> 
10000
(
(4.99498e-06 -4.99345e-06 0)
(2.13433e-05 -8.99927e-06 0)
(3.90426e-05 -9.3787e-06 0)
(5.30279e-05 -6.78789e-06 0)
(5.963e-05 -2.32078e-06 0)
(5.65678e-05 3.19785e-06 0)
(4.26251e-05 9.20682e-06 0)
(1.73338e-05 1.53378e-05 0)
(-1.92712e-05 2.13535e-05 0)
(-6.68261e-05 2.71041e-05 0)
(-0.000124758 3.24988e-05 0)
(-0.000192368 3.74861e-05 0)
(-0.000268888 4.20412e-05 0)
(-0.000353518 4.61571e-05 0)
(-0.000445452 4.98384e-05 0)
(-0.000543901 5.30979e-05 0)
(-0.000648098 5.59526e-05 0)
(-0.000757308 5.84227e-05 0)
(-0.000870833 6.05292e-05 0)
(-0.00098801 6.22932e-05 0)
(-0.00110822 6.37353e-05 0)
(-0.00123086 6.48743e-05 0)
(-0.00135538 6.57279e-05 0)
(-0.00148126 6.63115e-05 0)
(-0.001608 6.66384e-05 0)
(-0.0017351 6.672e-05 0)
(-0.00186213 6.65655e-05 0)
(-0.00198862 6.61822e-05 0)
(-0.00211415 6.55754e-05 0)
(-0.0022383 6.47489e-05 0)
(-0.00236064 6.37048e-05 0)
(-0.00248076 6.24443e-05 0)
(-0.00259824 6.09673e-05 0)
(-0.00271268 5.9273e-05 0)
(-0.00282366 5.73603e-05 0)
(-0.00293075 5.52278e-05 0)
(-0.00303355 5.28741e-05 0)
(-0.00313163 5.02982e-05 0)
(-0.00322456 4.74996e-05 0)
(-0.00331194 4.44787e-05 0)
(-0.00339333 4.12369e-05 0)
(-0.00346833 3.77769e-05 0)
(-0.00353653 3.4103e-05 0)
(-0.00359754 3.02209e-05 0)
(-0.00365097 2.61382e-05 0)
(-0.00369645 2.18647e-05 0)
(-0.00373364 1.74119e-05 0)
(-0.00376222 1.27937e-05 0)
(-0.00378189 8.0262e-06 0)
(-0.00379241 3.12758e-06 0)
(-0.00379353 -1.8816e-06 0)
(-0.00378509 -6.97861e-06 0)
(-0.00376695 -1.21386e-05 0)
(-0.00373901 -1.73348e-05 0)
(-0.00370125 -2.25382e-05 0)
(-0.00365368 -2.77187e-05 0)
(-0.00359637 -3.2844e-05 0)
(-0.00352948 -3.78811e-05 0)
(-0.00345319 -4.27957e-05 0)
(-0.00336779 -4.7553e-05 0)
(-0.00327359 -5.21178e-05 0)
(-0.003171 -5.64548e-05 0)
(-0.00306048 -6.05292e-05 0)
(-0.00294255 -6.43071e-05 0)
(-0.00281781 -6.77554e-05 0)
(-0.00268691 -7.0843e-05 0)
(-0.00255054 -7.35402e-05 0)
(-0.00240948 -7.58203e-05 0)
(-0.00226451 -7.76588e-05 0)
(-0.00211649 -7.90344e-05 0)
(-0.00196631 -7.99294e-05 0)
(-0.00181488 -8.03294e-05 0)
(-0.00166313 -8.02241e-05 0)
(-0.00151201 -7.96075e-05 0)
(-0.00136249 -7.84775e-05 0)
(-0.00121553 -7.68368e-05 0)
(-0.00107207 -7.46922e-05 0)
(-0.000933047 -7.20555e-05 0)
(-0.000799366 -6.89426e-05 0)
(-0.000671901 -6.53742e-05 0)
(-0.000551479 -6.13755e-05 0)
(-0.000438881 -5.69761e-05 0)
(-0.000334822 -5.22102e-05 0)
(-0.000239953 -4.71169e-05 0)
(-0.000154846 -4.17399e-05 0)
(-7.99833e-05 -3.61286e-05 0)
(-1.57518e-05 -3.03387e-05 0)
(3.7574e-05 -2.44332e-05 0)
(7.98454e-05 -1.84845e-05 0)
(0.000111059 -1.25775e-05 0)
(0.000131382 -6.81344e-06 0)
(0.000141185 -1.31614e-06 0)
(0.000141089 3.75913e-06 0)
(0.000132026 8.21361e-06 0)
(0.000115321 1.17889e-05 0)
(9.28028e-05 1.41475e-05 0)
(6.69249e-05 1.48578e-05 0)
(4.08679e-05 1.34087e-05 0)
(1.84127e-05 9.39971e-06 0)
(3.47458e-06 3.46924e-06 0)
(9.04108e-06 -2.13567e-05 0)
(3.91893e-05 -3.90581e-05 0)
(6.79438e-05 -3.80824e-05 0)
(8.46318e-05 -2.37818e-05 0)
(8.12535e-05 -9.19735e-07 0)
(5.25853e-05 2.6927e-05 0)
(-4.39611e-06 5.7225e-05 0)
(-9.10484e-05 8.82395e-05 0)
(-0.000207527 0.000118809 0)
(-0.00035314 0.000148173 0)
(-0.000526621 0.000175849 0)
(-0.000726319 0.000201551 0)
(-0.00095035 0.000225123 0)
(-0.00119669 0.000246505 0)
(-0.00146328 0.000265698 0)
(-0.00174802 0.000282747 0)
(-0.00204887 0.000297723 0)
(-0.00236384 0.000310715 0)
(-0.00269103 0.00032182 0)
(-0.00302858 0.000331136 0)
(-0.00337475 0.000338762 0)
(-0.00372788 0.000344789 0)
(-0.00408637 0.000349303 0)
(-0.0044487 0.00035238 0)
(-0.00481343 0.000354086 0)
(-0.00517917 0.000354479 0)
(-0.00554457 0.000353605 0)
(-0.00590833 0.000351501 0)
(-0.00626917 0.000348196 0)
(-0.00662586 0.00034371 0)
(-0.00697716 0.000338056 0)
(-0.00732187 0.00033124 0)
(-0.00765876 0.000323266 0)
(-0.00798664 0.000314131 0)
(-0.0083043 0.000303833 0)
(-0.00861053 0.000292366 0)
(-0.00890414 0.000279726 0)
(-0.00918392 0.000265912 0)
(-0.00944866 0.000250923 0)
(-0.00969719 0.000234766 0)
(-0.00992831 0.000217452 0)
(-0.0101409 0.000198996 0)
(-0.0103337 0.000179425 0)
(-0.0105058 0.000158773 0)
(-0.010656 0.00013708 0)
(-0.0107834 0.000114402 0)
(-0.0108869 9.08009e-05 0)
(-0.0109658 6.63516e-05 0)
(-0.0110193 4.11398e-05 0)
(-0.0110466 1.52628e-05 0)
(-0.0110471 -1.11709e-05 0)
(-0.0110205 -3.80415e-05 0)
(-0.0109663 -6.52187e-05 0)
(-0.0108843 -9.25617e-05 0)
(-0.0107746 -0.00011992 0)
(-0.0106371 -0.000147136 0)
(-0.0104722 -0.000174043 0)
(-0.0102802 -0.000200469 0)
(-0.0100618 -0.000226236 0)
(-0.00981782 -0.000251165 0)
(-0.0095491 -0.000275073 0)
(-0.00925682 -0.00029778 0)
(-0.0089423 -0.000319106 0)
(-0.00860702 -0.000338875 0)
(-0.00825265 -0.000356919 0)
(-0.007881 -0.000373077 0)
(-0.00749403 -0.000387198 0)
(-0.00709388 -0.000399143 0)
(-0.00668277 -0.000408789 0)
(-0.00626306 -0.000416026 0)
(-0.00583721 -0.000420764 0)
(-0.00540775 -0.000422929 0)
(-0.00497727 -0.00042247 0)
(-0.0045484 -0.000419355 0)
(-0.0041238 -0.000413577 0)
(-0.00370611 -0.000405149 0)
(-0.00329795 -0.000394108 0)
(-0.00290189 -0.000380516 0)
(-0.00252043 -0.000364457 0)
(-0.00215596 -0.000346039 0)
(-0.00181078 -0.000325396 0)
(-0.00148699 -0.000302683 0)
(-0.00118657 -0.00027808 0)
(-0.000911272 -0.000251794 0)
(-0.000662646 -0.000224057 0)
(-0.000441981 -0.000195129 0)
(-0.000250285 -0.000165304 0)
(-8.82525e-05 -0.000134916 0)
(4.37832e-05 -0.000104345 0)
(0.000145896 -7.40342e-05 0)
(0.000218631 -4.4506e-05 0)
(0.000263083 -1.63907e-05 0)
(0.000280998 9.53783e-06 0)
(0.000274895 3.2313e-05 0)
(0.000248226 5.0717e-05 0)
(0.000205548 6.32207e-05 0)
(0.000152692 6.79625e-05 0)
(9.68433e-05 6.28691e-05 0)
(4.62389e-05 4.62182e-05 0)
(9.39924e-06 1.83861e-05 0)
(9.48472e-06 -3.91725e-05 0)
(3.84587e-05 -6.78865e-05 0)
(5.93936e-05 -5.89566e-05 0)
(5.89326e-05 -2.35737e-05 0)
(2.68188e-05 2.91389e-05 0)
(-4.38243e-05 9.22788e-05 0)
(-0.000157157 0.000160804 0)
(-0.000315186 0.000231129 0)
(-0.000518286 0.000300752 0)
(-0.000765629 0.000367967 0)
(-0.00105552 0.000431647 0)
(-0.00138567 0.000491074 0)
(-0.00175338 0.000545832 0)
(-0.00215572 0.000595717 0)
(-0.0025896 0.000640672 0)
(-0.00305192 0.00068075 0)
(-0.00353956 0.000716069 0)
(-0.00404948 0.000746796 0)
(-0.0045787 0.000773122 0)
(-0.00512436 0.000795248 0)
(-0.00568371 0.00081338 0)
(-0.00625409 0.000827713 0)
(-0.00683297 0.00083843 0)
(-0.00741792 0.000845697 0)
(-0.0080066 0.000849663 0)
(-0.00859675 0.000850454 0)
(-0.00918619 0.000848176 0)
(-0.00977279 0.000842915 0)
(-0.0103545 0.000834736 0)
(-0.0109292 0.00082369 0)
(-0.011495 0.00080981 0)
(-0.0120499 0.000793117 0)
(-0.0125919 0.00077362 0)
(-0.013119 0.000751324 0)
(-0.0136294 0.000726226 0)
(-0.0141209 0.000698324 0)
(-0.0145918 0.000667617 0)
(-0.0150401 0.000634107 0)
(-0.0154639 0.000597805 0)
(-0.0158612 0.000558732 0)
(-0.0162302 0.000516923 0)
(-0.0165691 0.000472428 0)
(-0.0168761 0.000425312 0)
(-0.0171494 0.000375664 0)
(-0.0173874 0.000323593 0)
(-0.0175886 0.000269229 0)
(-0.0177515 0.00021273 0)
(-0.0178747 0.000154277 0)
(-0.0179571 9.40776e-05 0)
(-0.0179975 3.23647e-05 0)
(-0.0179953 -3.06022e-05 0)
(-0.0179495 -9.45386e-05 0)
(-0.0178598 -0.000159136 0)
(-0.0177258 -0.000224062 0)
(-0.0175476 -0.000288963 0)
(-0.0173253 -0.000353468 0)
(-0.0170594 -0.000417188 0)
(-0.0167506 -0.000479721 0)
(-0.0163999 -0.000540654 0)
(-0.0160085 -0.000599567 0)
(-0.015578 -0.000656038 0)
(-0.0151103 -0.000709647 0)
(-0.0146073 -0.000759979 0)
(-0.0140715 -0.000806627 0)
(-0.0135055 -0.000849201 0)
(-0.0129122 -0.000887331 0)
(-0.0122946 -0.000920668 0)
(-0.0116561 -0.000948895 0)
(-0.0110002 -0.000971724 0)
(-0.0103307 -0.000988907 0)
(-0.00965126 -0.00100023 0)
(-0.00896595 -0.00100554 0)
(-0.0082788 -0.00100471 0)
(-0.00759392 -0.000997666 0)
(-0.00691547 -0.0009844 0)
(-0.00624756 -0.000964946 0)
(-0.00559428 -0.000939393 0)
(-0.00495965 -0.000907888 0)
(-0.00434755 -0.000870633 0)
(-0.00376171 -0.000827886 0)
(-0.00320567 -0.00077996 0)
(-0.00268274 -0.000727229 0)
(-0.00219595 -0.000670121 0)
(-0.00174803 -0.000609127 0)
(-0.00134134 -0.000544799 0)
(-0.000977861 -0.000477761 0)
(-0.000659108 -0.000408713 0)
(-0.000386104 -0.000338443 0)
(-0.000159305 -0.000267852 0)
(2.14676e-05 -0.000197973 0)
(0.000157116 -0.00013001 0)
(0.000249369 -6.53865e-05 0)
(0.000300905 -5.81007e-06 0)
(0.000315501 4.66497e-05 0)
(0.000298198 8.94723e-05 0)
(0.000255473 0.000119608 0)
(0.000195381 0.000133466 0)
(0.000127597 0.000127094 0)
(6.30916e-05 9.68137e-05 0)
(1.34398e-05 4.08079e-05 0)
(6.94774e-06 -5.33932e-05 0)
(2.43115e-05 -8.47848e-05 0)
(2.40946e-05 -5.85475e-05 0)
(-7.98893e-06 8.28518e-06 0)
(-8.30748e-05 0.000102133 0)
(-0.000208685 0.000212611 0)
(-0.000389464 0.000331952 0)
(-0.000627705 0.000454465 0)
(-0.000923863 0.000576059 0)
(-0.00127698 0.000693849 0)
(-0.00168504 0.000805858 0)
(-0.00214528 0.000910781 0)
(-0.00265439 0.00100781 0)
(-0.00320872 0.00109651 0)
(-0.0038044 0.00117669 0)
(-0.00443747 0.00124839 0)
(-0.00510394 0.00131173 0)
(-0.00579986 0.00136695 0)
(-0.00652137 0.00141435 0)
(-0.00726469 0.00145424 0)
(-0.00802618 0.00148695 0)
(-0.0088023 0.00151279 0)
(-0.00958967 0.00153206 0)
(-0.010385 0.00154505 0)
(-0.0111851 0.001552 0)
(-0.011987 0.00155313 0)
(-0.0127876 0.00154862 0)
(-0.0135841 0.00153861 0)
(-0.0143736 0.00152324 0)
(-0.0151534 0.00150258 0)
(-0.0159207 0.00147671 0)
(-0.0166728 0.00144566 0)
(-0.0174069 0.00140947 0)
(-0.0181205 0.00136814 0)
(-0.018811 0.00132169 0)
(-0.0194755 0.00127012 0)
(-0.0201116 0.00121344 0)
(-0.0207166 0.00115168 0)
(-0.021288 0.00108485 0)
(-0.0218231 0.00101303 0)
(-0.0223196 0.000936269 0)
(-0.0227749 0.000854685 0)
(-0.0231868 0.000768408 0)
(-0.0235528 0.000677607 0)
(-0.0238709 0.00058249 0)
(-0.0241391 0.000483305 0)
(-0.0243553 0.000380344 0)
(-0.0245179 0.000273941 0)
(-0.0246253 0.000164477 0)
(-0.0246761 5.23786e-05 0)
(-0.0246693 -6.18835e-05 0)
(-0.0246041 -0.000177794 0)
(-0.0244797 -0.000294797 0)
(-0.0242959 -0.000412295 0)
(-0.0240528 -0.000529654 0)
(-0.0237506 -0.000646209 0)
(-0.0233899 -0.000761266 0)
(-0.0229719 -0.000874107 0)
(-0.0224978 -0.000983999 0)
(-0.0219694 -0.0010902 0)
(-0.0213887 -0.00119195 0)
(-0.0207583 -0.00128851 0)
(-0.0200808 -0.00137915 0)
(-0.0193596 -0.00146315 0)
(-0.018598 -0.00153981 0)
(-0.0177998 -0.00160849 0)
(-0.0169693 -0.00166858 0)
(-0.0161107 -0.0017195 0)
(-0.0152288 -0.00176076 0)
(-0.0143285 -0.00179192 0)
(-0.0134147 -0.00181261 0)
(-0.0124928 -0.00182255 0)
(-0.0115681 -0.00182152 0)
(-0.010646 -0.00180942 0)
(-0.00973193 -0.00178621 0)
(-0.00883137 -0.00175196 0)
(-0.00794968 -0.00170685 0)
(-0.00709214 -0.00165113 0)
(-0.00626386 -0.00158518 0)
(-0.00546974 -0.00150945 0)
(-0.00471443 -0.00142452 0)
(-0.00400227 -0.00133106 0)
(-0.00333724 -0.00122985 0)
(-0.00272288 -0.00112177 0)
(-0.00216229 -0.00100783 0)
(-0.00165803 -0.000889153 0)
(-0.00121206 -0.000766995 0)
(-0.00082567 -0.00064278 0)
(-0.000499437 -0.000518112 0)
(-0.000233094 -0.000394819 0)
(-2.54566e-05 -0.000275005 0)
(0.000125694 -0.000161115 0)
(0.000223743 -5.60214e-05 0)
(0.000273381 3.68766e-05 0)
(0.00028076 0.000113547 0)
(0.000253641 0.000169238 0)
(0.000201521 0.000198457 0)
(0.000135672 0.000195125 0)
(6.89216e-05 0.00015305 0)
(1.50253e-05 6.69551e-05 0)
(2.46886e-06 -6.02768e-05 0)
(1.23869e-06 -8.14917e-05 0)
(-2.94493e-05 -2.61313e-05 0)
(-0.000103655 8.36017e-05 0)
(-0.000232418 0.000229975 0)
(-0.000423132 0.000399248 0)
(-0.000680364 0.000580938 0)
(-0.00100632 0.000767188 0)
(-0.00140132 0.000952205 0)
(-0.00186418 0.0011318 0)
(-0.00239257 0.00130302 0)
(-0.00298332 0.00146385 0)
(-0.00363261 0.00161299 0)
(-0.0043362 0.00174969 0)
(-0.00508959 0.00187359 0)
(-0.0058881 0.00198461 0)
(-0.00672701 0.0020829 0)
(-0.00760161 0.00216875 0)
(-0.00850725 0.00224252 0)
(-0.00943937 0.00230465 0)
(-0.0103935 0.00235559 0)
(-0.0113654 0.00239579 0)
(-0.0123509 0.00242568 0)
(-0.0133459 0.00244567 0)
(-0.0143464 0.00245611 0)
(-0.0153487 0.00245732 0)
(-0.0163491 0.00244958 0)
(-0.0173439 0.00243311 0)
(-0.0183296 0.0024081 0)
(-0.0193027 0.00237468 0)
(-0.0202598 0.00233296 0)
(-0.0211974 0.00228302 0)
(-0.0221123 0.0022249 0)
(-0.0230009 0.00215865 0)
(-0.0238602 0.00208428 0)
(-0.0246867 0.00200183 0)
(-0.0254773 0.00191133 0)
(-0.0262286 0.00181283 0)
(-0.0269375 0.00170639 0)
(-0.0276009 0.00159212 0)
(-0.0282157 0.00147014 0)
(-0.028779 0.00134065 0)
(-0.0292877 0.00120386 0)
(-0.0297392 0.00106006 0)
(-0.0301309 0.000909595 0)
(-0.0304601 0.000752856 0)
(-0.0307248 0.000590316 0)
(-0.0309227 0.000422511 0)
(-0.0310521 0.000250044 0)
(-0.0311113 7.35874e-05 0)
(-0.0310991 -0.000106117 0)
(-0.0310144 -0.000288262 0)
(-0.0308566 -0.000471978 0)
(-0.0306254 -0.000656333 0)
(-0.0303209 -0.000840344 0)
(-0.0299435 -0.00102298 0)
(-0.0294941 -0.00120315 0)
(-0.028974 -0.00137977 0)
(-0.0283848 -0.00155169 0)
(-0.0277288 -0.00171776 0)
(-0.0270084 -0.00187684 0)
(-0.0262268 -0.00202777 0)
(-0.0253874 -0.00216942 0)
(-0.024494 -0.00230069 0)
(-0.023551 -0.00242053 0)
(-0.022563 -0.00252793 0)
(-0.0215349 -0.00262195 0)
(-0.0204723 -0.00270174 0)
(-0.0193807 -0.00276652 0)
(-0.0182661 -0.00281562 0)
(-0.0171347 -0.00284849 0)
(-0.0159927 -0.00286468 0)
(-0.0148468 -0.00286389 0)
(-0.0137035 -0.00284594 0)
(-0.0125693 -0.0028108 0)
(-0.011451 -0.00275857 0)
(-0.0103549 -0.00268953 0)
(-0.00928757 -0.00260409 0)
(-0.00825514 -0.00250283 0)
(-0.00726355 -0.00238646 0)
(-0.00631844 -0.00225589 0)
(-0.00542506 -0.00211216 0)
(-0.0045882 -0.00195649 0)
(-0.00381218 -0.00179027 0)
(-0.00310072 -0.00161506 0)
(-0.00245691 -0.00143262 0)
(-0.0018831 -0.0012449 0)
(-0.00138086 -0.00105412 0)
(-0.000950885 -0.00086273 0)
(-0.000592879 -0.000673535 0)
(-0.000305476 -0.000489704 0)
(-8.61246e-05 -0.000314873 0)
(6.90399e-05 -0.00015324 0)
(0.00016532 -9.679e-06 0)
(0.000209591 0.000110148 0)
(0.000210434 0.000199682 0)
(0.000178252 0.000251424 0)
(0.000125329 0.000256994 0)
(6.57273e-05 0.000207351 0)
(1.46149e-05 9.33005e-05 0)
(-3.18517e-06 -5.73621e-05 0)
(-2.74673e-05 -5.22541e-05 0)
(-9.4966e-05 4.60371e-05 0)
(-0.000218766 0.000211095 0)
(-0.000409119 0.000421577 0)
(-0.000672692 0.000660698 0)
(-0.00101351 0.000915436 0)
(-0.00143334 0.00117584 0)
(-0.00193213 0.00143442 0)
(-0.00250834 0.00168564 0)
(-0.00315928 0.00192553 0)
(-0.00388135 0.00215129 0)
(-0.00467026 0.00236108 0)
(-0.00552127 0.00255375 0)
(-0.00642931 0.00272871 0)
(-0.00738911 0.00288577 0)
(-0.00839532 0.00302504 0)
(-0.00944257 0.00314682 0)
(-0.0105255 0.00325157 0)
(-0.0116389 0.00333981 0)
(-0.0127777 0.00341212 0)
(-0.0139367 0.00346909 0)
(-0.0151112 0.00351128 0)
(-0.0162964 0.00353922 0)
(-0.0174877 0.00355339 0)
(-0.0186805 0.00355423 0)
(-0.0198705 0.00354211 0)
(-0.0210533 0.00351733 0)
(-0.0222249 0.00348015 0)
(-0.0233809 0.00343077 0)
(-0.0245173 0.00336935 0)
(-0.0256302 0.00329599 0)
(-0.0267154 0.0032108 0)
(-0.027769 0.00311383 0)
(-0.0287872 0.00300514 0)
(-0.0297659 0.00288478 0)
(-0.0307015 0.00275283 0)
(-0.03159 0.00260938 0)
(-0.0324277 0.00245454 0)
(-0.0332111 0.0022885 0)
(-0.0339363 0.00211145 0)
(-0.0346001 0.00192369 0)
(-0.035199 0.00172556 0)
(-0.0357299 0.00151748 0)
(-0.0361896 0.00129996 0)
(-0.0365753 0.00107359 0)
(-0.0368844 0.000839065 0)
(-0.0371146 0.000597156 0)
(-0.0372637 0.000348739 0)
(-0.0373299 9.47838e-05 0)
(-0.0373119 -0.000163644 0)
(-0.0372084 -0.00042539 0)
(-0.0370189 -0.000689208 0)
(-0.0367429 -0.000953773 0)
(-0.0363807 -0.00121769 0)
(-0.0359328 -0.00147948 0)
(-0.0354003 -0.00173762 0)
(-0.0347848 -0.00199056 0)
(-0.0340882 -0.00223667 0)
(-0.0333132 -0.00247435 0)
(-0.0324628 -0.00270196 0)
(-0.0315404 -0.00291789 0)
(-0.0305502 -0.00312054 0)
(-0.0294967 -0.00330838 0)
(-0.0283847 -0.0034799 0)
(-0.0272199 -0.0036337 0)
(-0.0260079 -0.00376847 0)
(-0.0247551 -0.003883 0)
(-0.023468 -0.0039762 0)
(-0.0221534 -0.00404715 0)
(-0.0208186 -0.00409505 0)
(-0.0194708 -0.0041193 0)
(-0.0181176 -0.00411946 0)
(-0.0167666 -0.00409529 0)
(-0.0154254 -0.00404675 0)
(-0.0141017 -0.003974 0)
(-0.012803 -0.00387744 0)
(-0.0115367 -0.00375764 0)
(-0.0103099 -0.00361543 0)
(-0.00912963 -0.00345186 0)
(-0.0080023 -0.00326819 0)
(-0.00693399 -0.00306592 0)
(-0.00593028 -0.00284679 0)
(-0.00499612 -0.00261277 0)
(-0.00413585 -0.00236609 0)
(-0.00335303 -0.00210924 0)
(-0.00265041 -0.00184502 0)
(-0.00202984 -0.00157651 0)
(-0.00149216 -0.0013072 0)
(-0.00103712 -0.00104096 0)
(-0.000663295 -0.000782155 0)
(-0.000367944 -0.000535745 0)
(-0.000146928 -0.000307356 0)
(5.41289e-06 -0.000103418 0)
(9.63769e-05 6.87058e-05 0)
(0.000135013 0.000200604 0)
(0.000132236 0.000282716 0)
(0.000100896 0.000304294 0)
(5.57659e-05 0.000253392 0)
(1.27588e-05 0.000117006 0)
(-9.50624e-06 -4.31504e-05 0)
(-5.95336e-05 6.73519e-06 0)
(-0.00016799 0.000163359 0)
(-0.00034654 0.000397077 0)
(-0.000604169 0.000683581 0)
(-0.000946374 0.00100346 0)
(-0.00137625 0.00134143 0)
(-0.00189484 0.00168559 0)
(-0.00250149 0.00202688 0)
(-0.00319416 0.00235845 0)
(-0.00396967 0.00267529 0)
(-0.00482396 0.00297382 0)
(-0.0057523 0.00325162 0)
(-0.00674944 0.00350712 0)
(-0.00780982 0.00373948 0)
(-0.00892763 0.00394833 0)
(-0.010097 0.00413373 0)
(-0.0113119 0.00429598 0)
(-0.0125664 0.0044356 0)
(-0.0138547 0.00455321 0)
(-0.0151711 0.00464951 0)
(-0.0165099 0.00472519 0)
(-0.0178655 0.00478096 0)
(-0.0192327 0.00481749 0)
(-0.0206061 0.00483537 0)
(-0.0219806 0.00483516 0)
(-0.0233513 0.00481732 0)
(-0.0247131 0.00478226 0)
(-0.0260612 0.00473032 0)
(-0.0273909 0.00466175 0)
(-0.0286975 0.00457678 0)
(-0.0299764 0.00447556 0)
(-0.0312229 0.00435823 0)
(-0.0324326 0.00422489 0)
(-0.0336009 0.00407563 0)
(-0.0347234 0.00391057 0)
(-0.0357957 0.00372981 0)
(-0.0368135 0.00353351 0)
(-0.0377725 0.00332186 0)
(-0.0386686 0.00309512 0)
(-0.0394976 0.00285359 0)
(-0.0402558 0.0025977 0)
(-0.0409392 0.00232792 0)
(-0.0415443 0.00204487 0)
(-0.0420676 0.00174923 0)
(-0.0425061 0.00144184 0)
(-0.0428567 0.00112364 0)
(-0.0431169 0.000795676 0)
(-0.0432843 0.00045915 0)
(-0.0433569 0.000115375 0)
(-0.0433333 -0.000234214 0)
(-0.0432121 -0.00058806 0)
(-0.0429927 -0.000944491 0)
(-0.0426748 -0.00130173 0)
(-0.0422587 -0.0016579 0)
(-0.041745 -0.00201105 0)
(-0.0411349 -0.00235914 0)
(-0.0404304 -0.00270008 0)
(-0.0396336 -0.00303174 0)
(-0.0387476 -0.00335197 0)
(-0.0377758 -0.00365859 0)
(-0.0367221 -0.00394947 0)
(-0.0355912 -0.0042225 0)
(-0.0343881 -0.00447562 0)
(-0.0331184 -0.00470687 0)
(-0.0317883 -0.00491437 0)
(-0.0304043 -0.00509639 0)
(-0.0289733 -0.00525132 0)
(-0.0275029 -0.00537774 0)
(-0.0260006 -0.00547442 0)
(-0.0244745 -0.00554031 0)
(-0.0229329 -0.00557461 0)
(-0.0213842 -0.00557674 0)
(-0.0198368 -0.0055464 0)
(-0.0182995 -0.00548353 0)
(-0.0167807 -0.00538836 0)
(-0.0152889 -0.00526141 0)
(-0.0138324 -0.00510346 0)
(-0.0124193 -0.00491561 0)
(-0.0110573 -0.00469928 0)
(-0.00975362 -0.00445614 0)
(-0.0085152 -0.00418822 0)
(-0.00734827 -0.00389783 0)
(-0.00625843 -0.00358762 0)
(-0.00525055 -0.00326056 0)
(-0.00432869 -0.00291997 0)
(-0.00349598 -0.00256957 0)
(-0.00275457 -0.00221346 0)
(-0.00210552 -0.0018562 0)
(-0.00154871 -0.00150286 0)
(-0.00108273 -0.00115911 0)
(-0.000704823 -0.000831295 0)
(-0.000410736 -0.000526532 0)
(-0.000194661 -0.000252867 0)
(-4.91237e-05 -1.93872e-05 0)
(3.51205e-05 0.00016363 0)
(6.91863e-05 0.000284574 0)
(6.61248e-05 0.00033037 0)
(4.0986e-05 0.000286309 0)
(9.90802e-06 0.000136013 0)
(-1.61702e-05 -1.68028e-05 0)
(-9.34448e-05 9.78405e-05 0)
(-0.000245419 0.000329405 0)
(-0.000482114 0.000645917 0)
(-0.000810947 0.00102075 0)
(-0.00123592 0.00143232 0)
(-0.00175891 0.00186341 0)
(-0.00237998 0.00230043 0)
(-0.00309768 0.00273285 0)
(-0.00390929 0.00315263 0)
(-0.00481106 0.00355378 0)
(-0.00579842 0.00393196 0)
(-0.00686612 0.00428416 0)
(-0.00800844 0.0046084 0)
(-0.00921932 0.00490355 0)
(-0.0104925 0.00516909 0)
(-0.0118215 0.00540497 0)
(-0.0131998 0.00561151 0)
(-0.0146211 0.00578925 0)
(-0.0160789 0.0059389 0)
(-0.017567 0.00606125 0)
(-0.019079 0.00615715 0)
(-0.0206089 0.0062274 0)
(-0.0221508 0.00627281 0)
(-0.0236989 0.00629411 0)
(-0.0252474 0.00629195 0)
(-0.0267908 0.00626692 0)
(-0.0283235 0.00621951 0)
(-0.0298402 0.00615014 0)
(-0.0313354 0.00605914 0)
(-0.0328041 0.0059468 0)
(-0.0342409 0.00581333 0)
(-0.0356408 0.00565891 0)
(-0.0369987 0.00548371 0)
(-0.0383095 0.00528786 0)
(-0.0395683 0.00507153 0)
(-0.0407702 0.0048349 0)
(-0.0419105 0.00457818 0)
(-0.0429843 0.00430167 0)
(-0.0439871 0.00400571 0)
(-0.0449143 0.00369076 0)
(-0.0457617 0.00335737 0)
(-0.046525 0.0030062 0)
(-0.0472004 0.00263806 0)
(-0.047784 0.00225387 0)
(-0.0482723 0.00185471 0)
(-0.0486623 0.00144182 0)
(-0.0489511 0.00101658 0)
(-0.049136 0.000580535 0)
(-0.0492151 0.000135385 0)
(-0.0491866 -0.000317016 0)
(-0.0490493 -0.000774663 0)
(-0.0488025 -0.00123541 0)
(-0.0484458 -0.00169698 0)
(-0.0479796 -0.00215698 0)
(-0.0474046 -0.00261289 0)
(-0.0467224 -0.00306213 0)
(-0.045935 -0.00350203 0)
(-0.0450448 -0.00392987 0)
(-0.0440553 -0.00434291 0)
(-0.04297 -0.0047384 0)
(-0.0417936 -0.00511362 0)
(-0.040531 -0.00546588 0)
(-0.0391879 -0.00579257 0)
(-0.0377703 -0.00609121 0)
(-0.036285 -0.00635941 0)
(-0.0347393 -0.00659497 0)
(-0.0331407 -0.00679586 0)
(-0.0314975 -0.00696026 0)
(-0.029818 -0.00708661 0)
(-0.028111 -0.0071736 0)
(-0.0263857 -0.00722019 0)
(-0.0246512 -0.00722567 0)
(-0.0229169 -0.00718964 0)
(-0.0211923 -0.00711203 0)
(-0.0194868 -0.00699314 0)
(-0.0178096 -0.00683363 0)
(-0.01617 -0.00663451 0)
(-0.0145767 -0.00639718 0)
(-0.0130383 -0.00612344 0)
(-0.0115627 -0.00581545 0)
(-0.0101577 -0.00547579 0)
(-0.00883006 -0.00510741 0)
(-0.00758601 -0.0047137 0)
(-0.00643099 -0.00429844 0)
(-0.00536953 -0.00386588 0)
(-0.00440517 -0.0034207 0)
(-0.00354041 -0.00296811 0)
(-0.00277657 -0.00251383 0)
(-0.00211374 -0.00206422 0)
(-0.00155065 -0.00162629 0)
(-0.00108462 -0.00120782 0)
(-0.000711468 -0.00081749 0)
(-0.000425399 -0.000464964 0)
(-0.000218958 -0.000161058 0)
(-8.29294e-05 8.21069e-05 0)
(-6.25061e-06 0.000250931 0)
(2.40324e-05 0.000330141 0)
(2.29132e-05 0.000302535 0)
(6.40091e-06 0.000148899 0)
(-2.29736e-05 2.20882e-05 0)
(-0.000128209 0.000222406 0)
(-0.000325134 0.000546386 0)
(-0.000622051 0.000960475 0)
(-0.00102464 0.00143632 0)
(-0.00153519 0.00195066 0)
(-0.00215414 0.00248465 0)
(-0.00288037 0.00302329 0)
(-0.00371145 0.00355478 0)
(-0.00464387 0.00407002 0)
(-0.0056732 0.00456212 0)
(-0.00679424 0.00502605 0)
(-0.00800121 0.00545825 0)
(-0.00928791 0.00585635 0)
(-0.0106478 0.00621892 0)
(-0.012074 0.00654528 0)
(-0.0135597 0.00683531 0)
(-0.015098 0.00708928 0)
(-0.0166819 0.00730778 0)
(-0.0183045 0.0074916 0)
(-0.0199589 0.00764162 0)
(-0.0216386 0.00775879 0)
(-0.0233369 0.00784406 0)
(-0.0250472 0.00789835 0)
(-0.0267634 0.00792252 0)
(-0.0284791 0.00791732 0)
(-0.0301882 0.00788346 0)
(-0.0318848 0.00782152 0)
(-0.0335628 0.007732 0)
(-0.0352165 0.00761533 0)
(-0.03684 0.00747184 0)
(-0.0384278 0.00730181 0)
(-0.039974 0.0071055 0)
(-0.0414733 0.00688311 0)
(-0.04292 0.00663485 0)
(-0.0443088 0.00636094 0)
(-0.0456343 0.00606165 0)
(-0.0468912 0.00573729 0)
(-0.0480744 0.00538824 0)
(-0.0491789 0.00501498 0)
(-0.0501998 0.00461811 0)
(-0.0511323 0.00419835 0)
(-0.0519719 0.00375656 0)
(-0.0527144 0.00329377 0)
(-0.0533557 0.00281116 0)
(-0.0538921 0.00231012 0)
(-0.0543202 0.00179219 0)
(-0.0546368 0.00125911 0)
(-0.0548394 0.000712818 0)
(-0.0549255 0.000155442 0)
(-0.0548936 -0.00041071 0)
(-0.0547421 -0.000983145 0)
(-0.0544705 -0.0015592 0)
(-0.0540784 -0.00213605 0)
(-0.0535661 -0.00271073 0)
(-0.0529347 -0.00328014 0)
(-0.0521856 -0.00384108 0)
(-0.0513211 -0.00439026 0)
(-0.0503441 -0.00492433 0)
(-0.0492579 -0.00543992 0)
(-0.0480667 -0.00593363 0)
(-0.0467754 -0.00640212 0)
(-0.0453894 -0.00684209 0)
(-0.0439147 -0.00725032 0)
(-0.042358 -0.00762376 0)
(-0.0407265 -0.00795948 0)
(-0.0390281 -0.00825476 0)
(-0.037271 -0.00850711 0)
(-0.0354639 -0.0087143 0)
(-0.0336161 -0.0088744 0)
(-0.0317369 -0.00898579 0)
(-0.0298363 -0.00904721 0)
(-0.0279242 -0.00905776 0)
(-0.0260107 -0.00901696 0)
(-0.024106 -0.00892472 0)
(-0.0222204 -0.00878141 0)
(-0.020364 -0.00858782 0)
(-0.0185465 -0.00834522 0)
(-0.0167777 -0.00805533 0)
(-0.0150668 -0.00772036 0)
(-0.0134225 -0.00734298 0)
(-0.0118532 -0.00692637 0)
(-0.0103663 -0.00647418 0)
(-0.00896865 -0.00599057 0)
(-0.00766627 -0.00548021 0)
(-0.00646417 -0.00494831 0)
(-0.00536634 -0.00440061 0)
(-0.00437566 -0.00384346 0)
(-0.00349378 -0.00328384 0)
(-0.00272108 -0.00272941 0)
(-0.00205652 -0.00218858 0)
(-0.00149763 -0.00167063 0)
(-0.0010404 -0.00118578 0)
(-0.000679215 -0.000745343 0)
(-0.000406796 -0.000361835 0)
(-0.000214139 -4.91705e-05 0)
(-9.0438e-05 0.000177158 0)
(-2.30646e-05 0.000299856 0)
(2.68421e-06 0.00029955 0)
(2.48111e-06 0.000154731 0)
(-2.97906e-05 7.36535e-05 0)
(-0.000163188 0.000381066 0)
(-0.000405705 0.000815509 0)
(-0.000763943 0.00134246 0)
(-0.00124176 0.00193236 0)
(-0.00183962 0.00256069 0)
(-0.00255636 0.00320736 0)
(-0.00338953 0.00385621 0)
(-0.00433557 0.00449439 0)
(-0.00539006 0.00511188 0)
(-0.00654777 0.00570106 0)
(-0.00780283 0.00625625 0)
(-0.00914888 0.00677341 0)
(-0.0105791 0.00724982 0)
(-0.0120866 0.00768379 0)
(-0.0136639 0.00807448 0)
(-0.0153039 0.00842168 0)
(-0.0169989 0.00872567 0)
(-0.0187418 0.00898705 0)
(-0.020525 0.00920667 0)
(-0.0223415 0.00938552 0)
(-0.0241838 0.00952466 0)
(-0.0260451 0.00962516 0)
(-0.0279184 0.00968804 0)
(-0.0297969 0.00971429 0)
(-0.0316738 0.0097048 0)
(-0.0335426 0.00966034 0)
(-0.0353968 0.00958161 0)
(-0.03723 0.0094692 0)
(-0.0390358 0.00932361 0)
(-0.040808 0.00914524 0)
(-0.0425405 0.00893446 0)
(-0.0442271 0.00869156 0)
(-0.0458619 0.00841684 0)
(-0.0474389 0.00811056 0)
(-0.0489523 0.00777304 0)
(-0.0503962 0.00740461 0)
(-0.051765 0.0070057 0)
(-0.0530532 0.00657681 0)
(-0.0542553 0.00611856 0)
(-0.0553661 0.00563171 0)
(-0.0563805 0.00511718 0)
(-0.0572938 0.00457605 0)
(-0.0581013 0.00400959 0)
(-0.0587986 0.00341928 0)
(-0.059382 0.00280681 0)
(-0.0598475 0.00217407 0)
(-0.0601921 0.00152321 0)
(-0.0604129 0.000856577 0)
(-0.0605074 0.000176754 0)
(-0.0604738 -0.000513453 0)
(-0.0603108 -0.00121103 0)
(-0.0600174 -0.00191275 0)
(-0.0595935 -0.00261522 0)
(-0.0590394 -0.00331485 0)
(-0.0583562 -0.00400791 0)
(-0.0575456 -0.00469056 0)
(-0.0566098 -0.00535883 0)
(-0.055552 -0.00600871 0)
(-0.0543758 -0.00663614 0)
(-0.0530856 -0.00723706 0)
(-0.0516867 -0.00780743 0)
(-0.0501847 -0.00834331 0)
(-0.0485861 -0.00884084 0)
(-0.0468981 -0.00929634 0)
(-0.0451283 -0.0097063 0)
(-0.0432851 -0.0100675 0)
(-0.0413773 -0.0103769 0)
(-0.0394141 -0.0106318 0)
(-0.0374055 -0.0108299 0)
(-0.0353615 -0.0109692 0)
(-0.0332925 -0.0110483 0)
(-0.0312094 -0.0110661 0)
(-0.0291228 -0.0110219 0)
(-0.0270438 -0.0109156 0)
(-0.0249833 -0.0107477 0)
(-0.022952 -0.0105192 0)
(-0.0209607 -0.0102314 0)
(-0.0190197 -0.00988657 0)
(-0.017139 -0.00948726 0)
(-0.015328 -0.0090367 0)
(-0.0135955 -0.00853869 0)
(-0.01195 -0.00799762 0)
(-0.0103986 -0.00741847 0)
(-0.00894807 -0.00680684 0)
(-0.00760385 -0.00616894 0)
(-0.00637047 -0.00551164 0)
(-0.00525121 -0.00484248 0)
(-0.00424816 -0.00416971 0)
(-0.00336202 -0.00350235 0)
(-0.0025921 -0.00285026 0)
(-0.00193624 -0.00222422 0)
(-0.0013907 -0.00163602 0)
(-0.000950188 -0.00109858 0)
(-0.000607724 -0.000626104 0)
(-0.000354664 -0.000234223 0)
(-0.000180617 5.97931e-05 0)
(-7.34456e-05 0.000236825 0)
(-1.88809e-05 0.000275641 0)
(-1.68053e-06 0.000152923 0)
(-3.65444e-05 0.00013785 0)
(-0.000197973 0.000573975 0)
(-0.000486176 0.00113726 0)
(-0.000906118 0.00179269 0)
(-0.00145984 0.00250998 0)
(-0.00214588 0.0032637 0)
(-0.0029614 0.00403287 0)
(-0.00390249 0.00480042 0)
(-0.00496439 0.0055527 0)
(-0.00614162 0.00627895 0)
(-0.00742809 0.00697092 0)
(-0.00881719 0.00762243 0)
(-0.0103019 0.00822902 0)
(-0.0118749 0.00878767 0)
(-0.0135286 0.00929648 0)
(-0.0152552 0.00975447 0)
(-0.017047 0.0101614 0)
(-0.0188961 0.0105175 0)
(-0.0207947 0.0108234 0)
(-0.022735 0.01108 0)
(-0.0247093 0.0112885 0)
(-0.0267101 0.01145 0)
(-0.0287299 0.0115656 0)
(-0.0307612 0.0116365 0)
(-0.0327969 0.0116639 0)
(-0.0348298 0.0116487 0)
(-0.0368529 0.0115917 0)
(-0.0388592 0.0114939 0)
(-0.040842 0.0113558 0)
(-0.0427945 0.0111781 0)
(-0.04471 0.0109612 0)
(-0.0465819 0.0107056 0)
(-0.0484038 0.0104116 0)
(-0.0501692 0.0100795 0)
(-0.0518716 0.00970987 0)
(-0.053505 0.00930295 0)
(-0.0550631 0.00885921 0)
(-0.0565399 0.00837919 0)
(-0.0579295 0.00786352 0)
(-0.059226 0.007313 0)
(-0.060424 0.00672856 0)
(-0.0615181 0.00611132 0)
(-0.0625031 0.00546261 0)
(-0.0633742 0.00478397 0)
(-0.0641268 0.00407718 0)
(-0.0647567 0.00334428 0)
(-0.06526 0.00258754 0)
(-0.0656333 0.00180951 0)
(-0.0658736 0.001013 0)
(-0.0659783 0.000201088 0)
(-0.0659455 -0.000622912 0)
(-0.0657737 -0.00145542 0)
(-0.065462 -0.00229263 0)
(-0.0650103 -0.00313052 0)
(-0.0644188 -0.00396487 0)
(-0.0636887 -0.00479127 0)
(-0.0628217 -0.00560518 0)
(-0.0618204 -0.00640196 0)
(-0.0606877 -0.00717686 0)
(-0.0594278 -0.00792511 0)
(-0.0580453 -0.00864193 0)
(-0.0565454 -0.00932258 0)
(-0.0549344 -0.0099624 0)
(-0.053219 -0.0105569 0)
(-0.0514067 -0.0111017 0)
(-0.0495056 -0.0115926 0)
(-0.0475245 -0.0120259 0)
(-0.0454727 -0.012398 0)
(-0.0433601 -0.0127057 0)
(-0.041197 -0.0129464 0)